VARIABLES = "x", "y" 
Zone T= "0"
I=180 
0 -0.000000 
1 0.034168 
2 0.068298 
3 0.102349 
4 0.136283 
5 0.170061 
6 0.203645 
7 0.236995 
8 0.270073 
9 0.302842 
10 0.335263 
11 0.367299 
12 0.398913 
13 0.430069 
14 0.460728 
15 0.490857 
16 0.520420 
17 0.549381 
18 0.577706 
19 0.605363 
20 0.632317 
21 0.658536 
22 0.683990 
23 0.708647 
24 0.732477 
25 0.755450 
26 0.777540 
27 0.798717 
28 0.818956 
29 0.838230 
30 0.856517 
31 0.873791 
32 0.890031 
33 0.905216 
34 0.919324 
35 0.932338 
36 0.944240 
37 0.955012 
38 0.964641 
39 0.973111 
40 0.980410 
41 0.986527 
42 0.991453 
43 0.995178 
44 0.997696 
45 0.999000 
46 0.999088 
47 0.997956 
48 0.995603 
49 0.992029 
50 0.987237 
51 0.981229 
52 0.974011 
53 0.965590 
54 0.955972 
55 0.945168 
56 0.933190 
57 0.920049 
58 0.905760 
59 0.890339 
60 0.873803 
61 0.856170 
62 0.837462 
63 0.817700 
64 0.796907 
65 0.775107 
66 0.752327 
67 0.728595 
68 0.703938 
69 0.678387 
70 0.651974 
71 0.624730 
72 0.596689 
73 0.567887 
74 0.538360 
75 0.508143 
76 0.477276 
77 0.445797 
78 0.413747 
79 0.381165 
80 0.348093 
81 0.314574 
82 0.280650 
83 0.246365 
84 0.211763 
85 0.176888 
86 0.141785 
87 0.106499 
88 0.071076 
89 0.035561 
90 0.000000 
91 -0.035561 
92 -0.071076 
93 -0.106499 
94 -0.141785 
95 -0.176888 
96 -0.211763 
97 -0.246365 
98 -0.280650 
99 -0.314574 
100 -0.348093 
101 -0.381165 
102 -0.413747 
103 -0.445797 
104 -0.477276 
105 -0.508143 
106 -0.538360 
107 -0.567887 
108 -0.596689 
109 -0.624730 
110 -0.651974 
111 -0.678387 
112 -0.703938 
113 -0.728595 
114 -0.752327 
115 -0.775107 
116 -0.796907 
117 -0.817700 
118 -0.837462 
119 -0.856170 
120 -0.873803 
121 -0.890339 
122 -0.905760 
123 -0.920049 
124 -0.933190 
125 -0.945168 
126 -0.955972 
127 -0.965590 
128 -0.974011 
129 -0.981229 
130 -0.987237 
131 -0.992029 
132 -0.995603 
133 -0.997956 
134 -0.999088 
135 -0.999000 
136 -0.997696 
137 -0.995178 
138 -0.991453 
139 -0.986527 
140 -0.980410 
141 -0.973111 
142 -0.964641 
143 -0.955012 
144 -0.944240 
145 -0.932338 
146 -0.919324 
147 -0.905216 
148 -0.890031 
149 -0.873791 
150 -0.856517 
151 -0.838230 
152 -0.818956 
153 -0.798717 
154 -0.777540 
155 -0.755450 
156 -0.732477 
157 -0.708647 
158 -0.683990 
159 -0.658536 
160 -0.632317 
161 -0.605363 
162 -0.577706 
163 -0.549381 
164 -0.520420 
165 -0.490857 
166 -0.460728 
167 -0.430069 
168 -0.398913 
169 -0.367299 
170 -0.335263 
171 -0.302842 
172 -0.270073 
173 -0.236995 
174 -0.203645 
175 -0.170061 
176 -0.136283 
177 -0.102349 
178 -0.068298 
179 -0.034168 
Zone T= "1"
I=180 
0 0.000000 
1 0.033469 
2 0.066902 
3 0.100263 
4 0.133516 
5 0.166625 
6 0.199555 
7 0.232269 
8 0.264733 
9 0.296911 
10 0.328767 
11 0.360267 
12 0.391376 
13 0.422059 
14 0.452283 
15 0.482013 
16 0.511216 
17 0.539859 
18 0.567908 
19 0.595332 
20 0.622098 
21 0.648176 
22 0.673534 
23 0.698142 
24 0.721970 
25 0.744989 
26 0.767171 
27 0.788487 
28 0.808911 
29 0.828416 
30 0.846976 
31 0.864568 
32 0.881167 
33 0.896750 
34 0.911296 
35 0.924783 
36 0.937191 
37 0.948502 
38 0.958698 
39 0.967762 
40 0.975679 
41 0.982435 
42 0.988016 
43 0.992411 
44 0.995610 
45 0.997605 
46 0.998386 
47 0.997949 
48 0.996289 
49 0.993403 
50 0.989289 
51 0.983948 
52 0.977380 
53 0.969590 
54 0.960582 
55 0.950362 
56 0.938940 
57 0.926324 
58 0.912527 
59 0.897561 
60 0.881441 
61 0.864185 
62 0.845810 
63 0.826337 
64 0.805787 
65 0.784184 
66 0.761552 
67 0.737918 
68 0.713311 
69 0.687760 
70 0.661296 
71 0.633952 
72 0.605763 
73 0.576764 
74 0.546992 
75 0.516485 
76 0.485283 
77 0.453426 
78 0.420957 
79 0.387919 
80 0.354354 
81 0.320309 
82 0.285828 
83 0.250958 
84 0.215746 
85 0.180240 
86 0.144489 
87 0.108540 
88 0.072442 
89 0.036246 
90 0.000000 
91 -0.036246 
92 -0.072442 
93 -0.108540 
94 -0.144489 
95 -0.180240 
96 -0.215746 
97 -0.250958 
98 -0.285828 
99 -0.320309 
100 -0.354354 
101 -0.387919 
102 -0.420957 
103 -0.453426 
104 -0.485283 
105 -0.516485 
106 -0.546992 
107 -0.576764 
108 -0.605763 
109 -0.633952 
110 -0.661296 
111 -0.687760 
112 -0.713311 
113 -0.737918 
114 -0.761552 
115 -0.784184 
116 -0.805787 
117 -0.826337 
118 -0.845810 
119 -0.864185 
120 -0.881441 
121 -0.897561 
122 -0.912527 
123 -0.926324 
124 -0.938940 
125 -0.950362 
126 -0.960582 
127 -0.969590 
128 -0.977380 
129 -0.983948 
130 -0.989289 
131 -0.993403 
132 -0.996289 
133 -0.997949 
134 -0.998386 
135 -0.997605 
136 -0.995610 
137 -0.992411 
138 -0.988016 
139 -0.982435 
140 -0.975679 
141 -0.967762 
142 -0.958698 
143 -0.948502 
144 -0.937191 
145 -0.924783 
146 -0.911296 
147 -0.896750 
148 -0.881167 
149 -0.864568 
150 -0.846976 
151 -0.828416 
152 -0.808911 
153 -0.788487 
154 -0.767171 
155 -0.744989 
156 -0.721970 
157 -0.698142 
158 -0.673534 
159 -0.648176 
160 -0.622098 
161 -0.595332 
162 -0.567908 
163 -0.539859 
164 -0.511216 
165 -0.482013 
166 -0.452283 
167 -0.422059 
168 -0.391376 
169 -0.360267 
170 -0.328767 
171 -0.296911 
172 -0.264733 
173 -0.232269 
174 -0.199555 
175 -0.166625 
176 -0.133516 
177 -0.100263 
178 -0.066902 
179 -0.033469 
Zone T= "2"
I=180 
0 0.000000 
1 0.032799 
2 0.065565 
3 0.098264 
4 0.130864 
5 0.163331 
6 0.195632 
7 0.227734 
8 0.259604 
9 0.291209 
10 0.322517 
11 0.353495 
12 0.384110 
13 0.414330 
14 0.444122 
15 0.473456 
16 0.502298 
17 0.530618 
18 0.558384 
19 0.585566 
20 0.612131 
21 0.638050 
22 0.663294 
23 0.687831 
24 0.711633 
25 0.734671 
26 0.756917 
27 0.778342 
28 0.798920 
29 0.818623 
30 0.837424 
31 0.855300 
32 0.872224 
33 0.888173 
34 0.903122 
35 0.917050 
36 0.929934 
37 0.941754 
38 0.952490 
39 0.962122 
40 0.970633 
41 0.978006 
42 0.984225 
43 0.989275 
44 0.993144 
45 0.995819 
46 0.997289 
47 0.997545 
48 0.996579 
49 0.994385 
50 0.990958 
51 0.986293 
52 0.980390 
53 0.973249 
54 0.964870 
55 0.955257 
56 0.944415 
57 0.932351 
58 0.919074 
59 0.904593 
60 0.888921 
61 0.872072 
62 0.854063 
63 0.834911 
64 0.814635 
65 0.793259 
66 0.770805 
67 0.747298 
68 0.722767 
69 0.697240 
70 0.670748 
71 0.643324 
72 0.615004 
73 0.585822 
74 0.555816 
75 0.525027 
76 0.493495 
77 0.461263 
78 0.428374 
79 0.394874 
80 0.360809 
81 0.326227 
82 0.291176 
83 0.255706 
84 0.219867 
85 0.183711 
86 0.147289 
87 0.110654 
88 0.073858 
89 0.036956 
90 -0.000000 
91 -0.036956 
92 -0.073858 
93 -0.110654 
94 -0.147289 
95 -0.183711 
96 -0.219867 
97 -0.255706 
98 -0.291176 
99 -0.326227 
100 -0.360809 
101 -0.394874 
102 -0.428374 
103 -0.461263 
104 -0.493495 
105 -0.525027 
106 -0.555816 
107 -0.585822 
108 -0.615004 
109 -0.643324 
110 -0.670748 
111 -0.697240 
112 -0.722767 
113 -0.747298 
114 -0.770805 
115 -0.793259 
116 -0.814635 
117 -0.834911 
118 -0.854063 
119 -0.872072 
120 -0.888921 
121 -0.904593 
122 -0.919074 
123 -0.932351 
124 -0.944415 
125 -0.955257 
126 -0.964870 
127 -0.973249 
128 -0.980390 
129 -0.986293 
130 -0.990958 
131 -0.994385 
132 -0.996579 
133 -0.997545 
134 -0.997289 
135 -0.995819 
136 -0.993144 
137 -0.989275 
138 -0.984225 
139 -0.978006 
140 -0.970633 
141 -0.962122 
142 -0.952490 
143 -0.941754 
144 -0.929934 
145 -0.917050 
146 -0.903122 
147 -0.888173 
148 -0.872224 
149 -0.855300 
150 -0.837424 
151 -0.818623 
152 -0.798920 
153 -0.778342 
154 -0.756917 
155 -0.734671 
156 -0.711633 
157 -0.687831 
158 -0.663294 
159 -0.638050 
160 -0.612131 
161 -0.585566 
162 -0.558384 
163 -0.530618 
164 -0.502298 
165 -0.473456 
166 -0.444122 
167 -0.414330 
168 -0.384110 
169 -0.353495 
170 -0.322517 
171 -0.291209 
172 -0.259604 
173 -0.227734 
174 -0.195632 
175 -0.163331 
176 -0.130864 
177 -0.098264 
178 -0.065565 
179 -0.032799 
Zone T= "3"
I=180 
0 0.000000 
1 0.032157 
2 0.064282 
3 0.096347 
4 0.128319 
5 0.160168 
6 0.191864 
7 0.223376 
8 0.254673 
9 0.285724 
10 0.316500 
11 0.346969 
12 0.377101 
13 0.406867 
14 0.436234 
15 0.465174 
16 0.493657 
17 0.521651 
18 0.549128 
19 0.576058 
20 0.602412 
21 0.628159 
22 0.653270 
23 0.677718 
24 0.701473 
25 0.724506 
26 0.746790 
27 0.768296 
28 0.788998 
29 0.808868 
30 0.827880 
31 0.846007 
32 0.863224 
33 0.879505 
34 0.894826 
35 0.909162 
36 0.922491 
37 0.934790 
38 0.946037 
39 0.956211 
40 0.965291 
41 0.973259 
42 0.980095 
43 0.985783 
44 0.990307 
45 0.993651 
46 0.995802 
47 0.996746 
48 0.996473 
49 0.994973 
50 0.992237 
51 0.988259 
52 0.983032 
53 0.976554 
54 0.968823 
55 0.959837 
56 0.949599 
57 0.938113 
58 0.925382 
59 0.911416 
60 0.896222 
61 0.879813 
62 0.862201 
63 0.843402 
64 0.823434 
65 0.802316 
66 0.780071 
67 0.756721 
68 0.732294 
69 0.706818 
70 0.680323 
71 0.652841 
72 0.624408 
73 0.595059 
74 0.564834 
75 0.533772 
76 0.501917 
77 0.469312 
78 0.436003 
79 0.402038 
80 0.367466 
81 0.332337 
82 0.296702 
83 0.260616 
84 0.224132 
85 0.187304 
86 0.150190 
87 0.112845 
88 0.075327 
89 0.037692 
90 -0.000000 
91 -0.037692 
92 -0.075327 
93 -0.112845 
94 -0.150190 
95 -0.187304 
96 -0.224132 
97 -0.260616 
98 -0.296702 
99 -0.332337 
100 -0.367466 
101 -0.402038 
102 -0.436003 
103 -0.469312 
104 -0.501917 
105 -0.533772 
106 -0.564834 
107 -0.595059 
108 -0.624408 
109 -0.652841 
110 -0.680323 
111 -0.706818 
112 -0.732294 
113 -0.756721 
114 -0.780071 
115 -0.802316 
116 -0.823434 
117 -0.843402 
118 -0.862201 
119 -0.879813 
120 -0.896222 
121 -0.911416 
122 -0.925382 
123 -0.938113 
124 -0.949599 
125 -0.959837 
126 -0.968823 
127 -0.976554 
128 -0.983032 
129 -0.988259 
130 -0.992237 
131 -0.994973 
132 -0.996473 
133 -0.996746 
134 -0.995802 
135 -0.993651 
136 -0.990307 
137 -0.985783 
138 -0.980095 
139 -0.973259 
140 -0.965291 
141 -0.956211 
142 -0.946037 
143 -0.934790 
144 -0.922491 
145 -0.909162 
146 -0.894826 
147 -0.879505 
148 -0.863224 
149 -0.846007 
150 -0.827880 
151 -0.808868 
152 -0.788998 
153 -0.768296 
154 -0.746790 
155 -0.724506 
156 -0.701473 
157 -0.677718 
158 -0.653270 
159 -0.628159 
160 -0.602412 
161 -0.576058 
162 -0.549128 
163 -0.521651 
164 -0.493657 
165 -0.465174 
166 -0.436234 
167 -0.406867 
168 -0.377101 
169 -0.346969 
170 -0.316500 
171 -0.285724 
172 -0.254673 
173 -0.223376 
174 -0.191864 
175 -0.160168 
176 -0.128319 
177 -0.096347 
178 -0.064282 
179 -0.032157 
Zone T= "4"
I=180 
0 0.000000 
1 0.031540 
2 0.063052 
3 0.094506 
4 0.125875 
5 0.157131 
6 0.188244 
7 0.219186 
8 0.249929 
9 0.280444 
10 0.310703 
11 0.340678 
12 0.370339 
13 0.399658 
14 0.428607 
15 0.457158 
16 0.485281 
17 0.512949 
18 0.540133 
19 0.566805 
20 0.592936 
21 0.618499 
22 0.643465 
23 0.667805 
24 0.691493 
25 0.714500 
26 0.736798 
27 0.758361 
28 0.779160 
29 0.799169 
30 0.818361 
31 0.836708 
32 0.854186 
33 0.870768 
34 0.886429 
35 0.901143 
36 0.914885 
37 0.927633 
38 0.939362 
39 0.950049 
40 0.959673 
41 0.968211 
42 0.975644 
43 0.981950 
44 0.987112 
45 0.991112 
46 0.993932 
47 0.995557 
48 0.995973 
49 0.995166 
50 0.993124 
51 0.989837 
52 0.985297 
53 0.979495 
54 0.972426 
55 0.964087 
56 0.954475 
57 0.943589 
58 0.931433 
59 0.918009 
60 0.903324 
61 0.887385 
62 0.870203 
63 0.851791 
64 0.832164 
65 0.811338 
66 0.789334 
67 0.766174 
68 0.741881 
69 0.716484 
70 0.690012 
71 0.662496 
72 0.633971 
73 0.604474 
74 0.574044 
75 0.542721 
76 0.510551 
77 0.477577 
78 0.443849 
79 0.409417 
80 0.374331 
81 0.338645 
82 0.302414 
83 0.265696 
84 0.228547 
85 0.191028 
86 0.153197 
87 0.115117 
88 0.076850 
89 0.038456 
90 -0.000000 
91 -0.038456 
92 -0.076850 
93 -0.115117 
94 -0.153197 
95 -0.191028 
96 -0.228547 
97 -0.265696 
98 -0.302414 
99 -0.338645 
100 -0.374331 
101 -0.409417 
102 -0.443849 
103 -0.477577 
104 -0.510551 
105 -0.542721 
106 -0.574044 
107 -0.604474 
108 -0.633971 
109 -0.662496 
110 -0.690012 
111 -0.716484 
112 -0.741881 
113 -0.766174 
114 -0.789334 
115 -0.811338 
116 -0.832164 
117 -0.851791 
118 -0.870203 
119 -0.887385 
120 -0.903324 
121 -0.918009 
122 -0.931433 
123 -0.943589 
124 -0.954475 
125 -0.964087 
126 -0.972426 
127 -0.979495 
128 -0.985297 
129 -0.989837 
130 -0.993124 
131 -0.995166 
132 -0.995973 
133 -0.995557 
134 -0.993932 
135 -0.991112 
136 -0.987112 
137 -0.981950 
138 -0.975644 
139 -0.968211 
140 -0.959673 
141 -0.950049 
142 -0.939362 
143 -0.927633 
144 -0.914885 
145 -0.901143 
146 -0.886429 
147 -0.870768 
148 -0.854186 
149 -0.836708 
150 -0.818361 
151 -0.799169 
152 -0.779160 
153 -0.758361 
154 -0.736798 
155 -0.714500 
156 -0.691493 
157 -0.667805 
158 -0.643465 
159 -0.618499 
160 -0.592936 
161 -0.566805 
162 -0.540133 
163 -0.512949 
164 -0.485281 
165 -0.457158 
166 -0.428607 
167 -0.399658 
168 -0.370339 
169 -0.340678 
170 -0.310703 
171 -0.280444 
172 -0.249929 
173 -0.219186 
174 -0.188244 
175 -0.157131 
176 -0.125875 
177 -0.094506 
178 -0.063052 
179 -0.031540 
Zone T= "5"
I=180 
0 0.000000 
1 0.030948 
2 0.061869 
3 0.092737 
4 0.123527 
5 0.154210 
6 0.184762 
7 0.215154 
8 0.245362 
9 0.275358 
10 0.305116 
11 0.334608 
12 0.363809 
13 0.392692 
14 0.421230 
15 0.449395 
16 0.477162 
17 0.504503 
18 0.531391 
19 0.557800 
20 0.583701 
21 0.609069 
22 0.633876 
23 0.658095 
24 0.681698 
25 0.704659 
26 0.726950 
27 0.748545 
28 0.769417 
29 0.789538 
30 0.808881 
31 0.827421 
32 0.845130 
33 0.861983 
34 0.877952 
35 0.893012 
36 0.907138 
37 0.920304 
38 0.932486 
39 0.943659 
40 0.953799 
41 0.962883 
42 0.970888 
43 0.977792 
44 0.983574 
45 0.988213 
46 0.991690 
47 0.993986 
48 0.995083 
49 0.994965 
50 0.993618 
51 0.991026 
52 0.987178 
53 0.982062 
54 0.975670 
55 0.967993 
56 0.959026 
57 0.948764 
58 0.937207 
59 0.924353 
60 0.910206 
61 0.894769 
62 0.878051 
63 0.860059 
64 0.840806 
65 0.820307 
66 0.798578 
67 0.775639 
68 0.751514 
69 0.726226 
70 0.699805 
71 0.672282 
72 0.643689 
73 0.614064 
74 0.583445 
75 0.551875 
76 0.519399 
77 0.486063 
78 0.451918 
79 0.417016 
80 0.381410 
81 0.345159 
82 0.308319 
83 0.270952 
84 0.233120 
85 0.194887 
86 0.156316 
87 0.117475 
88 0.078430 
89 0.039249 
90 -0.000000 
91 -0.039249 
92 -0.078430 
93 -0.117475 
94 -0.156316 
95 -0.194887 
96 -0.233120 
97 -0.270952 
98 -0.308319 
99 -0.345159 
100 -0.381410 
101 -0.417016 
102 -0.451918 
103 -0.486063 
104 -0.519399 
105 -0.551875 
106 -0.583445 
107 -0.614064 
108 -0.643689 
109 -0.672282 
110 -0.699805 
111 -0.726226 
112 -0.751514 
113 -0.775639 
114 -0.798578 
115 -0.820307 
116 -0.840806 
117 -0.860059 
118 -0.878051 
119 -0.894769 
120 -0.910206 
121 -0.924353 
122 -0.937207 
123 -0.948764 
124 -0.959026 
125 -0.967993 
126 -0.975670 
127 -0.982062 
128 -0.987178 
129 -0.991026 
130 -0.993618 
131 -0.994965 
132 -0.995083 
133 -0.993986 
134 -0.991690 
135 -0.988213 
136 -0.983574 
137 -0.977792 
138 -0.970888 
139 -0.962883 
140 -0.953799 
141 -0.943659 
142 -0.932486 
143 -0.920304 
144 -0.907138 
145 -0.893012 
146 -0.877952 
147 -0.861983 
148 -0.845130 
149 -0.827421 
150 -0.808881 
151 -0.789538 
152 -0.769417 
153 -0.748545 
154 -0.726950 
155 -0.704659 
156 -0.681698 
157 -0.658095 
158 -0.633876 
159 -0.609069 
160 -0.583701 
161 -0.557800 
162 -0.531391 
163 -0.504503 
164 -0.477162 
165 -0.449395 
166 -0.421230 
167 -0.392692 
168 -0.363809 
169 -0.334608 
170 -0.305116 
171 -0.275358 
172 -0.245362 
173 -0.215154 
174 -0.184762 
175 -0.154210 
176 -0.123527 
177 -0.092737 
178 -0.061869 
179 -0.030948 
Zone T= "6"
I=180 
0 0.000000 
1 0.030378 
2 0.060732 
3 0.091036 
4 0.121267 
5 0.151400 
6 0.181410 
7 0.211272 
8 0.240962 
9 0.270455 
10 0.299726 
11 0.328750 
12 0.357502 
13 0.385958 
14 0.414091 
15 0.441877 
16 0.469289 
17 0.496304 
18 0.522895 
19 0.549036 
20 0.574702 
21 0.599866 
22 0.624503 
23 0.648587 
24 0.672090 
25 0.694988 
26 0.717253 
27 0.738859 
28 0.759779 
29 0.779987 
30 0.799457 
31 0.818161 
32 0.836073 
33 0.853166 
34 0.869415 
35 0.884791 
36 0.899270 
37 0.912826 
38 0.925431 
39 0.937061 
40 0.947690 
41 0.957293 
42 0.965847 
43 0.973326 
44 0.979707 
45 0.984968 
46 0.989086 
47 0.992040 
48 0.993810 
49 0.994375 
50 0.993719 
51 0.991822 
52 0.988670 
53 0.984248 
54 0.978543 
55 0.971543 
56 0.963239 
57 0.953622 
58 0.942687 
59 0.930429 
60 0.916849 
61 0.901945 
62 0.885721 
63 0.868183 
64 0.849340 
65 0.829202 
66 0.807783 
67 0.785101 
68 0.761176 
69 0.736031 
70 0.709692 
71 0.682188 
72 0.653553 
73 0.623822 
74 0.593035 
75 0.561234 
76 0.528464 
77 0.494773 
78 0.460215 
79 0.424842 
80 0.388713 
81 0.351886 
82 0.314425 
83 0.276393 
84 0.237858 
85 0.198888 
86 0.159552 
87 0.119923 
88 0.080072 
89 0.040073 
90 -0.000000 
91 -0.040073 
92 -0.080072 
93 -0.119923 
94 -0.159552 
95 -0.198888 
96 -0.237858 
97 -0.276393 
98 -0.314425 
99 -0.351886 
100 -0.388713 
101 -0.424842 
102 -0.460215 
103 -0.494773 
104 -0.528464 
105 -0.561234 
106 -0.593035 
107 -0.623822 
108 -0.653553 
109 -0.682188 
110 -0.709692 
111 -0.736031 
112 -0.761176 
113 -0.785101 
114 -0.807783 
115 -0.829202 
116 -0.849340 
117 -0.868183 
118 -0.885721 
119 -0.901945 
120 -0.916849 
121 -0.930429 
122 -0.942687 
123 -0.953622 
124 -0.963239 
125 -0.971543 
126 -0.978543 
127 -0.984248 
128 -0.988670 
129 -0.991822 
130 -0.993719 
131 -0.994375 
132 -0.993810 
133 -0.992040 
134 -0.989086 
135 -0.984968 
136 -0.979707 
137 -0.973326 
138 -0.965847 
139 -0.957293 
140 -0.947690 
141 -0.937061 
142 -0.925431 
143 -0.912826 
144 -0.899270 
145 -0.884791 
146 -0.869415 
147 -0.853166 
148 -0.836073 
149 -0.818161 
150 -0.799457 
151 -0.779987 
152 -0.759779 
153 -0.738859 
154 -0.717253 
155 -0.694988 
156 -0.672090 
157 -0.648587 
158 -0.624503 
159 -0.599866 
160 -0.574702 
161 -0.549036 
162 -0.522895 
163 -0.496304 
164 -0.469289 
165 -0.441877 
166 -0.414091 
167 -0.385958 
168 -0.357502 
169 -0.328750 
170 -0.299726 
171 -0.270455 
172 -0.240962 
173 -0.211272 
174 -0.181410 
175 -0.151400 
176 -0.121267 
177 -0.091036 
178 -0.060732 
179 -0.030378 
Zone T= "7"
I=180 
0 0.000000 
1 0.029830 
2 0.059637 
3 0.089399 
4 0.119092 
5 0.148694 
6 0.178181 
7 0.207531 
8 0.236720 
9 0.265725 
10 0.294524 
11 0.323092 
12 0.351407 
13 0.379444 
14 0.407180 
15 0.434592 
16 0.461655 
17 0.488344 
18 0.514637 
19 0.540508 
20 0.565933 
21 0.590886 
22 0.615344 
23 0.639281 
24 0.662671 
25 0.685489 
26 0.707710 
27 0.729308 
28 0.750256 
29 0.770528 
30 0.790099 
31 0.808942 
32 0.827030 
33 0.844337 
34 0.860835 
35 0.876500 
36 0.891302 
37 0.905217 
38 0.918217 
39 0.930275 
40 0.941366 
41 0.951462 
42 0.960538 
43 0.968569 
44 0.975528 
45 0.981390 
46 0.986133 
47 0.989730 
48 0.992161 
49 0.993401 
50 0.993430 
51 0.992226 
52 0.989772 
53 0.986048 
54 0.981038 
55 0.974727 
56 0.967100 
57 0.958146 
58 0.947855 
59 0.936219 
60 0.923232 
61 0.908890 
62 0.893193 
63 0.876143 
64 0.857744 
65 0.838003 
66 0.816931 
67 0.794542 
68 0.770852 
69 0.745883 
70 0.719659 
71 0.692206 
72 0.663557 
73 0.633746 
74 0.602811 
75 0.570796 
76 0.537746 
77 0.503711 
78 0.468744 
79 0.432902 
80 0.396244 
81 0.358835 
82 0.320740 
83 0.282027 
84 0.242769 
85 0.203038 
86 0.162911 
87 0.122464 
88 0.081777 
89 0.040929 
90 -0.000000 
91 -0.040929 
92 -0.081777 
93 -0.122464 
94 -0.162911 
95 -0.203038 
96 -0.242769 
97 -0.282027 
98 -0.320740 
99 -0.358835 
100 -0.396244 
101 -0.432902 
102 -0.468744 
103 -0.503711 
104 -0.537746 
105 -0.570796 
106 -0.602811 
107 -0.633746 
108 -0.663557 
109 -0.692206 
110 -0.719659 
111 -0.745883 
112 -0.770852 
113 -0.794542 
114 -0.816931 
115 -0.838003 
116 -0.857744 
117 -0.876143 
118 -0.893193 
119 -0.908890 
120 -0.923232 
121 -0.936219 
122 -0.947855 
123 -0.958146 
124 -0.967100 
125 -0.974727 
126 -0.981038 
127 -0.986048 
128 -0.989772 
129 -0.992226 
130 -0.993430 
131 -0.993401 
132 -0.992161 
133 -0.989730 
134 -0.986133 
135 -0.981390 
136 -0.975528 
137 -0.968569 
138 -0.960538 
139 -0.951462 
140 -0.941366 
141 -0.930275 
142 -0.918217 
143 -0.905217 
144 -0.891302 
145 -0.876500 
146 -0.860835 
147 -0.844337 
148 -0.827030 
149 -0.808942 
150 -0.790099 
151 -0.770528 
152 -0.750256 
153 -0.729308 
154 -0.707710 
155 -0.685489 
156 -0.662671 
157 -0.639281 
158 -0.615344 
159 -0.590886 
160 -0.565933 
161 -0.540508 
162 -0.514637 
163 -0.488344 
164 -0.461655 
165 -0.434592 
166 -0.407180 
167 -0.379444 
168 -0.351407 
169 -0.323092 
170 -0.294524 
171 -0.265725 
172 -0.236720 
173 -0.207531 
174 -0.178181 
175 -0.148694 
176 -0.119092 
177 -0.089399 
178 -0.059637 
179 -0.029830 
Zone T= "8"
I=180 
0 0.000000 
1 0.029302 
2 0.058583 
3 0.087822 
4 0.116996 
5 0.146086 
6 0.175068 
7 0.203922 
8 0.232627 
9 0.261160 
10 0.289500 
11 0.317625 
12 0.345513 
13 0.373141 
14 0.400488 
15 0.427532 
16 0.454248 
17 0.480615 
18 0.506610 
19 0.532209 
20 0.557389 
21 0.582126 
22 0.606396 
23 0.630176 
24 0.653441 
25 0.676166 
26 0.698327 
27 0.719898 
28 0.740854 
29 0.761170 
30 0.780819 
31 0.799777 
32 0.818015 
33 0.835509 
34 0.852231 
35 0.868155 
36 0.883253 
37 0.897499 
38 0.910864 
39 0.923323 
40 0.934847 
41 0.945409 
42 0.954982 
43 0.963539 
44 0.971053 
45 0.977497 
46 0.982844 
47 0.987069 
48 0.990145 
49 0.992049 
50 0.992755 
51 0.992240 
52 0.990482 
53 0.987458 
54 0.983149 
55 0.977535 
56 0.970599 
57 0.962324 
58 0.952696 
59 0.941704 
60 0.929336 
61 0.915585 
62 0.900447 
63 0.883917 
64 0.865996 
65 0.846689 
66 0.826000 
67 0.803941 
68 0.780524 
69 0.755768 
70 0.729692 
71 0.702323 
72 0.673690 
73 0.643826 
74 0.612768 
75 0.580560 
76 0.547246 
77 0.512878 
78 0.477509 
79 0.441200 
80 0.404013 
81 0.366013 
82 0.327271 
83 0.287861 
84 0.247860 
85 0.207345 
86 0.166399 
87 0.125105 
88 0.083550 
89 0.041819 
90 -0.000000 
91 -0.041819 
92 -0.083550 
93 -0.125105 
94 -0.166399 
95 -0.207345 
96 -0.247860 
97 -0.287861 
98 -0.327271 
99 -0.366013 
100 -0.404013 
101 -0.441200 
102 -0.477509 
103 -0.512878 
104 -0.547246 
105 -0.580560 
106 -0.612768 
107 -0.643826 
108 -0.673690 
109 -0.702323 
110 -0.729692 
111 -0.755768 
112 -0.780524 
113 -0.803941 
114 -0.826000 
115 -0.846689 
116 -0.865996 
117 -0.883917 
118 -0.900447 
119 -0.915585 
120 -0.929336 
121 -0.941704 
122 -0.952696 
123 -0.962324 
124 -0.970599 
125 -0.977535 
126 -0.983149 
127 -0.987458 
128 -0.990482 
129 -0.992240 
130 -0.992755 
131 -0.992049 
132 -0.990145 
133 -0.987069 
134 -0.982844 
135 -0.977497 
136 -0.971053 
137 -0.963539 
138 -0.954982 
139 -0.945409 
140 -0.934847 
141 -0.923323 
142 -0.910864 
143 -0.897499 
144 -0.883253 
145 -0.868155 
146 -0.852231 
147 -0.835509 
148 -0.818015 
149 -0.799777 
150 -0.780819 
151 -0.761170 
152 -0.740854 
153 -0.719898 
154 -0.698327 
155 -0.676166 
156 -0.653441 
157 -0.630176 
158 -0.606396 
159 -0.582126 
160 -0.557389 
161 -0.532209 
162 -0.506610 
163 -0.480615 
164 -0.454248 
165 -0.427532 
166 -0.400488 
167 -0.373141 
168 -0.345513 
169 -0.317625 
170 -0.289500 
171 -0.261160 
172 -0.232627 
173 -0.203922 
174 -0.175068 
175 -0.146086 
176 -0.116996 
177 -0.087822 
178 -0.058583 
179 -0.029302 
Zone T= "9"
I=180 
0 0.000000 
1 0.028794 
2 0.057567 
3 0.086301 
4 0.114976 
5 0.143570 
6 0.172065 
7 0.200441 
8 0.228676 
9 0.256751 
10 0.284646 
11 0.312339 
12 0.339811 
13 0.367040 
14 0.394006 
15 0.420687 
16 0.447061 
17 0.473108 
18 0.498806 
19 0.524132 
20 0.549064 
21 0.573580 
22 0.597657 
23 0.621271 
24 0.644400 
25 0.667019 
26 0.689106 
27 0.710634 
28 0.731581 
29 0.751920 
30 0.771628 
31 0.790677 
32 0.809043 
33 0.826699 
34 0.843618 
35 0.859774 
36 0.875141 
37 0.889689 
38 0.903393 
39 0.916224 
40 0.928154 
41 0.939155 
42 0.949198 
43 0.958257 
44 0.966301 
45 0.973303 
46 0.979235 
47 0.984068 
48 0.987776 
49 0.990329 
50 0.991702 
51 0.991868 
52 0.990802 
53 0.988477 
54 0.984872 
55 0.979961 
56 0.973725 
57 0.966143 
58 0.957196 
59 0.946868 
60 0.935144 
61 0.922011 
62 0.907460 
63 0.891483 
64 0.874076 
65 0.855237 
66 0.834970 
67 0.813278 
68 0.790172 
69 0.765666 
70 0.739777 
71 0.712527 
72 0.683942 
73 0.654055 
74 0.622901 
75 0.590522 
76 0.556963 
77 0.522276 
78 0.486516 
79 0.449743 
80 0.412024 
81 0.373428 
82 0.334029 
83 0.293906 
84 0.253139 
85 0.211815 
86 0.170022 
87 0.127851 
88 0.085393 
89 0.042745 
90 -0.000000 
91 -0.042745 
92 -0.085393 
93 -0.127851 
94 -0.170022 
95 -0.211815 
96 -0.253139 
97 -0.293906 
98 -0.334029 
99 -0.373428 
100 -0.412024 
101 -0.449743 
102 -0.486516 
103 -0.522276 
104 -0.556963 
105 -0.590522 
106 -0.622901 
107 -0.654055 
108 -0.683942 
109 -0.712527 
110 -0.739777 
111 -0.765666 
112 -0.790172 
113 -0.813278 
114 -0.834970 
115 -0.855237 
116 -0.874076 
117 -0.891483 
118 -0.907460 
119 -0.922011 
120 -0.935144 
121 -0.946868 
122 -0.957196 
123 -0.966143 
124 -0.973725 
125 -0.979961 
126 -0.984872 
127 -0.988477 
128 -0.990802 
129 -0.991868 
130 -0.991702 
131 -0.990329 
132 -0.987776 
133 -0.984068 
134 -0.979235 
135 -0.973303 
136 -0.966301 
137 -0.958257 
138 -0.949198 
139 -0.939155 
140 -0.928154 
141 -0.916224 
142 -0.903393 
143 -0.889689 
144 -0.875141 
145 -0.859774 
146 -0.843618 
147 -0.826699 
148 -0.809043 
149 -0.790677 
150 -0.771628 
151 -0.751920 
152 -0.731581 
153 -0.710634 
154 -0.689106 
155 -0.667019 
156 -0.644400 
157 -0.621271 
158 -0.597657 
159 -0.573580 
160 -0.549064 
161 -0.524132 
162 -0.498806 
163 -0.473108 
164 -0.447061 
165 -0.420687 
166 -0.394006 
167 -0.367040 
168 -0.339811 
169 -0.312339 
170 -0.284646 
171 -0.256751 
172 -0.228676 
173 -0.200441 
174 -0.172065 
175 -0.143570 
176 -0.114976 
177 -0.086301 
178 -0.057567 
179 -0.028794 
Zone T= "10"
I=180 
0 0.000000 
1 0.028303 
2 0.056587 
3 0.084834 
4 0.113026 
5 0.141143 
6 0.169167 
7 0.197078 
8 0.224859 
9 0.252490 
10 0.279952 
11 0.307226 
12 0.334292 
13 0.361131 
14 0.387723 
15 0.414048 
16 0.440086 
17 0.465816 
18 0.491218 
19 0.516271 
20 0.540953 
21 0.565244 
22 0.589121 
23 0.612563 
24 0.635547 
25 0.658050 
26 0.680049 
27 0.701520 
28 0.722441 
29 0.742787 
30 0.762532 
31 0.781653 
32 0.800123 
33 0.817918 
34 0.835010 
35 0.851374 
36 0.866982 
37 0.881807 
38 0.895821 
39 0.908997 
40 0.921305 
41 0.932718 
42 0.943206 
43 0.952740 
44 0.961290 
45 0.968827 
46 0.975322 
47 0.980744 
48 0.985064 
49 0.988252 
50 0.990279 
51 0.991116 
52 0.990734 
53 0.989106 
54 0.986203 
55 0.982000 
56 0.976472 
57 0.969593 
58 0.961341 
59 0.951696 
60 0.940637 
61 0.928147 
62 0.914212 
63 0.898819 
64 0.881960 
65 0.863626 
66 0.843817 
67 0.822532 
68 0.799777 
69 0.775560 
70 0.749895 
71 0.722801 
72 0.694301 
73 0.664424 
74 0.633203 
75 0.600679 
76 0.566896 
77 0.531906 
78 0.495765 
79 0.458536 
80 0.420286 
81 0.381088 
82 0.341021 
83 0.300168 
84 0.258616 
85 0.216458 
86 0.173789 
87 0.130706 
88 0.087312 
89 0.043708 
90 -0.000000 
91 -0.043708 
92 -0.087312 
93 -0.130706 
94 -0.173789 
95 -0.216458 
96 -0.258616 
97 -0.300168 
98 -0.341021 
99 -0.381088 
100 -0.420286 
101 -0.458536 
102 -0.495765 
103 -0.531906 
104 -0.566896 
105 -0.600679 
106 -0.633203 
107 -0.664424 
108 -0.694301 
109 -0.722801 
110 -0.749895 
111 -0.775560 
112 -0.799777 
113 -0.822532 
114 -0.843817 
115 -0.863626 
116 -0.881960 
117 -0.898819 
118 -0.914212 
119 -0.928147 
120 -0.940637 
121 -0.951696 
122 -0.961341 
123 -0.969593 
124 -0.976472 
125 -0.982000 
126 -0.986203 
127 -0.989106 
128 -0.990734 
129 -0.991116 
130 -0.990279 
131 -0.988252 
132 -0.985064 
133 -0.980744 
134 -0.975322 
135 -0.968827 
136 -0.961290 
137 -0.952740 
138 -0.943206 
139 -0.932718 
140 -0.921305 
141 -0.908997 
142 -0.895821 
143 -0.881807 
144 -0.866982 
145 -0.851374 
146 -0.835010 
147 -0.817918 
148 -0.800123 
149 -0.781653 
150 -0.762532 
151 -0.742787 
152 -0.722441 
153 -0.701520 
154 -0.680049 
155 -0.658050 
156 -0.635547 
157 -0.612563 
158 -0.589121 
159 -0.565244 
160 -0.540953 
161 -0.516271 
162 -0.491218 
163 -0.465816 
164 -0.440086 
165 -0.414048 
166 -0.387723 
167 -0.361131 
168 -0.334292 
169 -0.307226 
170 -0.279952 
171 -0.252490 
172 -0.224859 
173 -0.197078 
174 -0.169167 
175 -0.141143 
176 -0.113026 
177 -0.084834 
178 -0.056587 
179 -0.028303 
Zone T= "11"
I=180 
0 0.000000 
1 0.027829 
2 0.055641 
3 0.083418 
4 0.111143 
5 0.138798 
6 0.166367 
7 0.193830 
8 0.221170 
9 0.248371 
10 0.275412 
11 0.302278 
12 0.328949 
13 0.355406 
14 0.381632 
15 0.407608 
16 0.433314 
17 0.458731 
18 0.483839 
19 0.508619 
20 0.533051 
21 0.557114 
22 0.580787 
23 0.604050 
24 0.626880 
25 0.649257 
26 0.671157 
27 0.692559 
28 0.713439 
29 0.733774 
30 0.753540 
31 0.772713 
32 0.791267 
33 0.809178 
34 0.826420 
35 0.842967 
36 0.858792 
37 0.873868 
38 0.888166 
39 0.901660 
40 0.914320 
41 0.926118 
42 0.937023 
43 0.947007 
44 0.956038 
45 0.964086 
46 0.971120 
47 0.977110 
48 0.982023 
49 0.985829 
50 0.988495 
51 0.989991 
52 0.990285 
53 0.989346 
54 0.987144 
55 0.983649 
56 0.978832 
57 0.972665 
58 0.965121 
59 0.956173 
60 0.945799 
61 0.933976 
62 0.920684 
63 0.905905 
64 0.889626 
65 0.871833 
66 0.852519 
67 0.831680 
68 0.809315 
69 0.785428 
70 0.760029 
71 0.733130 
72 0.704752 
73 0.674920 
74 0.643665 
75 0.611025 
76 0.577042 
77 0.541769 
78 0.505262 
79 0.467583 
80 0.428804 
81 0.389001 
82 0.348256 
83 0.306658 
84 0.264300 
85 0.221282 
86 0.177705 
87 0.133678 
88 0.089309 
89 0.044712 
90 -0.000000 
91 -0.044712 
92 -0.089309 
93 -0.133678 
94 -0.177705 
95 -0.221282 
96 -0.264300 
97 -0.306658 
98 -0.348256 
99 -0.389001 
100 -0.428804 
101 -0.467583 
102 -0.505262 
103 -0.541769 
104 -0.577042 
105 -0.611025 
106 -0.643665 
107 -0.674920 
108 -0.704752 
109 -0.733130 
110 -0.760029 
111 -0.785428 
112 -0.809315 
113 -0.831680 
114 -0.852519 
115 -0.871833 
116 -0.889626 
117 -0.905905 
118 -0.920684 
119 -0.933976 
120 -0.945799 
121 -0.956173 
122 -0.965121 
123 -0.972665 
124 -0.978832 
125 -0.983649 
126 -0.987144 
127 -0.989346 
128 -0.990285 
129 -0.989991 
130 -0.988495 
131 -0.985829 
132 -0.982023 
133 -0.977110 
134 -0.971120 
135 -0.964086 
136 -0.956038 
137 -0.947007 
138 -0.937023 
139 -0.926118 
140 -0.914320 
141 -0.901660 
142 -0.888166 
143 -0.873868 
144 -0.858792 
145 -0.842967 
146 -0.826420 
147 -0.809178 
148 -0.791267 
149 -0.772713 
150 -0.753540 
151 -0.733774 
152 -0.713439 
153 -0.692559 
154 -0.671157 
155 -0.649257 
156 -0.626880 
157 -0.604050 
158 -0.580787 
159 -0.557114 
160 -0.533051 
161 -0.508619 
162 -0.483839 