VARIABLES = "x", "y" 
Zone T= "0"
I=40 
0 0.000067 
1 0.155402 
2 0.308183 
3 0.453472 
4 0.587851 
5 0.707535 
6 0.808935 
7 0.890469 
8 0.950359 
9 0.987060 
10 0.999554 
11 0.987515 
12 0.951171 
13 0.891432 
14 0.809695 
15 0.707904 
16 0.588529 
17 0.454450 
18 0.309112 
19 0.155905 
20 0.000746 
21 -0.156189 
22 -0.309009 
23 -0.454219 
24 -0.588159 
25 -0.707632 
26 -0.809581 
27 -0.891500 
28 -0.951235 
29 -0.987553 
30 -0.999740 
31 -0.987595 
32 -0.951102 
33 -0.891152 
34 -0.809013 
35 -0.706984 
36 -0.587602 
37 -0.453889 
38 -0.308341 
39 -0.154764 
Zone T= "1"
I=40 
0 0.000300 
1 0.154403 
2 0.307235 
3 0.453059 
4 0.587882 
5 0.707879 
6 0.808963 
7 0.889909 
8 0.949642 
9 0.986449 
10 0.999110 
11 0.987327 
12 0.951268 
13 0.891877 
14 0.810378 
15 0.708642 
16 0.589331 
17 0.454974 
18 0.308983 
19 0.155742 
20 0.001133 
21 -0.155754 
22 -0.309034 
23 -0.454490 
24 -0.588511 
25 -0.708139 
26 -0.810176 
27 -0.891971 
28 -0.951400 
29 -0.987409 
30 -0.999515 
31 -0.987492 
32 -0.951145 
33 -0.891291 
34 -0.809045 
35 -0.706773 
36 -0.587493 
37 -0.453820 
38 -0.307450 
39 -0.153405 
Zone T= "2"
I=40 
0 0.000539 
1 0.153458 
2 0.306260 
3 0.452643 
4 0.587922 
5 0.708179 
6 0.809019 
7 0.889394 
8 0.948887 
9 0.985843 
10 0.998690 
11 0.987100 
12 0.951369 
13 0.892340 
14 0.811025 
15 0.709388 
16 0.590159 
17 0.455475 
18 0.308873 
19 0.155603 
20 0.001485 
21 -0.155327 
22 -0.309035 
23 -0.454778 
24 -0.588873 
25 -0.708629 
26 -0.810779 
27 -0.892445 
28 -0.951533 
29 -0.987269 
30 -0.999318 
31 -0.987376 
32 -0.951187 
33 -0.891449 
34 -0.809046 
35 -0.706559 
36 -0.587420 
37 -0.453705 
38 -0.306542 
39 -0.152123 
Zone T= "3"
I=40 
0 0.000774 
1 0.152555 
2 0.305281 
3 0.452218 
4 0.587960 
5 0.708459 
6 0.809092 
7 0.888910 
8 0.948118 
9 0.985233 
10 0.998282 
11 0.986856 
12 0.951465 
13 0.892809 
14 0.811658 
15 0.710136 
16 0.590998 
17 0.455973 
18 0.308778 
19 0.155476 
20 0.001817 
21 -0.154908 
22 -0.309027 
23 -0.455074 
24 -0.589239 
25 -0.709112 
26 -0.811385 
27 -0.892912 
28 -0.951647 
29 -0.987135 
30 -0.999136 
31 -0.987258 
32 -0.951234 
33 -0.891610 
34 -0.809028 
35 -0.706351 
36 -0.587363 
37 -0.453558 
38 -0.305627 
39 -0.150897 
Zone T= "4"
I=40 
0 0.001003 
1 0.151687 
2 0.304307 
3 0.451780 
4 0.587988 
5 0.708728 
6 0.809177 
7 0.888450 
8 0.947346 
9 0.984614 
10 0.997876 
11 0.986606 
12 0.951553 
13 0.893275 
14 0.812285 
15 0.710885 
16 0.591840 
17 0.456475 
18 0.308697 
19 0.155353 
20 0.002133 
21 -0.154495 
22 -0.309015 
23 -0.455373 
24 -0.589608 
25 -0.709596 
26 -0.811992 
27 -0.893367 
28 -0.951748 
29 -0.987005 
30 -0.998964 
31 -0.987142 
32 -0.951286 
33 -0.891766 
34 -0.808994 
35 -0.706151 
36 -0.587313 
37 -0.453381 
38 -0.304711 
39 -0.149717 
Zone T= "5"
I=40 
0 0.001224 
1 0.150849 
2 0.303344 
3 0.451328 
4 0.588004 
5 0.708989 
6 0.809272 
7 0.888012 
8 0.946576 
9 0.983986 
10 0.997470 
11 0.986355 
12 0.951633 
13 0.893735 
14 0.812910 
15 0.711633 
16 0.592683 
17 0.456984 
18 0.308630 
19 0.155233 
20 0.002438 
21 -0.154087 
22 -0.309003 
23 -0.455674 
24 -0.589977 
25 -0.710083 
26 -0.812598 
27 -0.893808 
28 -0.951839 
29 -0.986882 
30 -0.998797 
31 -0.987030 
32 -0.951343 
33 -0.891914 
34 -0.808950 
35 -0.705961 
36 -0.587266 
37 -0.453180 
38 -0.303796 
39 -0.148576 
Zone T= "6"
I=40 
0 0.001437 
1 0.150041 
2 0.302392 
3 0.450862 
4 0.588007 
5 0.709246 
6 0.809376 
7 0.887592 
8 0.945811 
9 0.983349 
10 0.997061 
11 0.986104 
12 0.951705 
13 0.894187 
14 0.813536 
15 0.712381 
16 0.593525 
17 0.457502 
18 0.308576 
19 0.155112 
20 0.002734 
21 -0.153686 
22 -0.308993 
23 -0.455975 
24 -0.590348 
25 -0.710574 
26 -0.813202 
27 -0.894237 
28 -0.951923 
29 -0.986763 
30 -0.998636 
31 -0.986925 
32 -0.951406 
33 -0.892053 
34 -0.808896 
35 -0.705781 
36 -0.587218 
37 -0.452955 
38 -0.302885 
39 -0.147473 
Zone T= "7"
I=40 
0 0.001643 
1 0.149259 
2 0.301453 
3 0.450384 
4 0.587997 
5 0.709498 
6 0.809489 
7 0.887192 
8 0.945053 
9 0.982702 
10 0.996648 
11 0.985854 
12 0.951769 
13 0.894631 
14 0.814162 
15 0.713129 
16 0.594366 
17 0.458030 
18 0.308535 
19 0.154992 
20 0.003021 
21 -0.153290 
22 -0.308984 
23 -0.456277 
24 -0.590720 
25 -0.711069 
26 -0.813804 
27 -0.894651 
28 -0.952000 
29 -0.986649 
30 -0.998480 
31 -0.986826 
32 -0.951473 
33 -0.892182 
34 -0.808835 
35 -0.705611 
36 -0.587169 
37 -0.452708 
38 -0.301978 
39 -0.146405 
Zone T= "8"
I=40 
0 0.001842 
1 0.148504 
2 0.300527 
3 0.449894 
4 0.587972 
5 0.709744 
6 0.809609 
7 0.886809 
8 0.944302 
9 0.982046 
10 0.996230 
11 0.985605 
12 0.951825 
13 0.895065 
14 0.814788 
15 0.713876 
16 0.595204 
17 0.458567 
18 0.308507 
19 0.154871 
20 0.003299 
21 -0.152901 
22 -0.308978 
23 -0.456578 
24 -0.591094 
25 -0.711570 
26 -0.814401 
27 -0.895052 
28 -0.952070 
29 -0.986539 
30 -0.998329 
31 -0.986733 
32 -0.951544 
33 -0.892301 
34 -0.808767 
35 -0.705450 
36 -0.587117 
37 -0.452440 
38 -0.301076 
39 -0.145370 
Zone T= "9"
I=40 
0 0.002033 
1 0.147774 
2 0.299615 
3 0.449392 
4 0.587935 
5 0.709986 
6 0.809737 
7 0.886445 
8 0.943559 
9 0.981381 
10 0.995806 
11 0.985357 
12 0.951875 
13 0.895491 
14 0.815414 
15 0.714623 
16 0.596041 
17 0.459113 
18 0.308492 
19 0.154751 
20 0.003569 
21 -0.152517 
22 -0.308974 
23 -0.456878 
24 -0.591469 
25 -0.712074 
26 -0.814994 
27 -0.895440 
28 -0.952136 
29 -0.986434 
30 -0.998183 
31 -0.986648 
32 -0.951618 
33 -0.892411 
34 -0.808693 
35 -0.705299 
36 -0.587061 
37 -0.452151 
38 -0.300178 
39 -0.144367 
Zone T= "10"
I=40 
0 0.002217 
1 0.147068 
2 0.298715 
3 0.448880 
4 0.587883 
5 0.710222 
6 0.809873 
7 0.886099 
8 0.942825 
9 0.980709 
10 0.995377 
11 0.985110 
12 0.951917 
13 0.895908 
14 0.816039 
15 0.715370 
16 0.596877 
17 0.459667 
18 0.308489 
19 0.154632 
20 0.003831 
21 -0.152140 
22 -0.308972 
23 -0.457179 
24 -0.591846 
25 -0.712583 
26 -0.815583 
27 -0.895816 
28 -0.952197 
29 -0.986333 
30 -0.998041 
31 -0.986568 
32 -0.951694 
33 -0.892511 
34 -0.808615 
35 -0.705156 
36 -0.587001 
37 -0.451842 
38 -0.299285 
39 -0.143393 
Zone T= "11"
I=40 
0 0.002395 
1 0.146385 
2 0.297828 
3 0.448358 
4 0.587818 
5 0.710451 
6 0.810014 
7 0.885770 
8 0.942100 
9 0.980029 
10 0.994941 
11 0.984863 
12 0.951954 
13 0.896316 
14 0.816663 
15 0.716117 
16 0.597712 
17 0.460230 
18 0.308499 
19 0.154514 
20 0.004085 
21 -0.151770 
22 -0.308972 
23 -0.457479 
24 -0.592226 
25 -0.713095 
26 -0.816167 
27 -0.896180 
28 -0.952253 
29 -0.986236 
30 -0.997905 
31 -0.986495 
32 -0.951773 
33 -0.892603 
34 -0.808532 
35 -0.705020 
36 -0.586937 
37 -0.451514 
38 -0.298397 
39 -0.142449 
Zone T= "12"
I=40 
0 0.002567 
1 0.145723 
2 0.296953 
3 0.447826 
4 0.587740 
5 0.710672 
6 0.810161 
7 0.885459 
8 0.941386 
9 0.979342 
10 0.994499 
11 0.984617 
12 0.951985 
13 0.896715 
14 0.817286 
15 0.716864 
16 0.598545 
17 0.460801 
18 0.308521 
19 0.154397 
20 0.004331 
21 -0.151406 
22 -0.308974 
23 -0.457779 
24 -0.592608 
25 -0.713610 
26 -0.816745 
27 -0.896532 
28 -0.952305 
29 -0.986143 
30 -0.997773 
31 -0.986428 
32 -0.951853 
33 -0.892685 
34 -0.808446 
35 -0.704893 
36 -0.586867 
37 -0.451168 
38 -0.297515 
39 -0.141533 
Zone T= "13"
I=40 
0 0.002733 
1 0.145083 
2 0.296091 
3 0.447284 
4 0.587648 
5 0.710884 
6 0.810313 
7 0.885165 
8 0.940682 
9 0.978649 
10 0.994050 
11 0.984370 
12 0.952011 
13 0.897106 
14 0.817907 
15 0.717610 
16 0.599378 
17 0.461379 
18 0.308554 
19 0.154281 
20 0.004570 
21 -0.151049 
22 -0.308978 
23 -0.458079 
24 -0.592993 
25 -0.714129 
26 -0.817318 
27 -0.896873 
28 -0.952353 
29 -0.986054 
30 -0.997647 
31 -0.986367 
32 -0.951934 
33 -0.892760 
34 -0.808356 
35 -0.704772 
36 -0.586791 
37 -0.450805 
38 -0.296639 
39 -0.140643 
Zone T= "14"
I=40 
0 0.002895 
1 0.144463 
2 0.295241 
3 0.446734 
4 0.587541 
5 0.711088 
6 0.810469 
7 0.884889 
8 0.939990 
9 0.977950 
10 0.993594 
11 0.984123 
12 0.952033 
13 0.897490 
14 0.818526 
15 0.718357 
16 0.600211 
17 0.461966 
18 0.308599 
19 0.154169 
20 0.004803 
21 -0.150698 
22 -0.308983 
23 -0.458379 
24 -0.593382 
25 -0.714650 
26 -0.817884 
27 -0.897204 
28 -0.952398 
29 -0.985968 
30 -0.997526 
31 -0.986312 
32 -0.952015 
33 -0.892826 
34 -0.808265 
35 -0.704657 
36 -0.586709 
37 -0.450426 
38 -0.295770 
39 -0.139780 
Zone T= "0"
I=40 
0 0.003036 
1 0.143867 
2 0.294383 
3 0.446164 
4 0.587408 
5 0.711258 
6 0.810595 
7 0.884646 
8 0.939286 
9 0.977250 
10 0.993102 
11 0.983867 
12 0.952044 
13 0.897855 
14 0.819154 
15 0.719101 
16 0.601049 
17 0.462550 
18 0.308657 
19 0.154061 
20 0.005034 
21 -0.150382 
22 -0.309022 
23 -0.458684 
24 -0.593760 
25 -0.715136 
26 -0.818453 
27 -0.897524 
28 -0.952475 
29 -0.985910 
30 -0.997411 
31 -0.986272 
32 -0.952120 
33 -0.892881 
34 -0.808190 
35 -0.704559 
36 -0.586637 
37 -0.450018 
38 -0.294917 
39 -0.138926 
Zone T= "1"
I=40 
0 0.003187 
1 0.143279 
2 0.293541 
3 0.445587 
4 0.587262 
5 0.711415 
6 0.810734 
7 0.884400 
8 0.938615 
9 0.976526 
10 0.992615 
11 0.983605 
12 0.952048 
13 0.898222 
14 0.819770 
15 0.719852 
16 0.601884 
17 0.463144 
18 0.308722 
19 0.153960 
20 0.005252 
21 -0.150069 
22 -0.309064 
23 -0.458992 
24 -0.594131 
25 -0.715639 
26 -0.819000 
27 -0.897846 
28 -0.952544 
29 -0.985853 
30 -0.997304 
31 -0.986239 
32 -0.952219 
33 -0.892939 
34 -0.808105 
35 -0.704474 
36 -0.586549 
37 -0.449606 
38 -0.294058 
39 -0.138112 
Zone T= "2"
I=40 
0 0.003335 
1 0.142709 
2 0.292711 
3 0.445003 
4 0.587100 
5 0.711561 
6 0.810877 
7 0.884171 
8 0.937957 
9 0.975800 
10 0.992120 
11 0.983340 
12 0.952049 
13 0.898580 
14 0.820383 
15 0.720602 
16 0.602718 
17 0.463747 
18 0.308797 
19 0.153862 
20 0.005465 
21 -0.149762 
22 -0.309107 
23 -0.459299 
24 -0.594507 
25 -0.716143 
26 -0.819541 
27 -0.898160 
28 -0.952609 
29 -0.985799 
30 -0.997203 
31 -0.986211 
32 -0.952316 
33 -0.892991 
34 -0.808018 
35 -0.704393 
36 -0.586455 
37 -0.449179 
38 -0.293208 
39 -0.137322 
Zone T= "3"
I=40 
0 0.003479 
1 0.142156 
2 0.291893 
3 0.444414 
4 0.586926 
5 0.711698 
6 0.811023 
7 0.883957 
8 0.937311 
9 0.975072 
10 0.991618 
11 0.983074 
12 0.952045 
13 0.898931 
14 0.820992 
15 0.721352 
16 0.603554 
17 0.464356 
18 0.308884 
19 0.153767 
20 0.005672 
21 -0.149462 
22 -0.309150 
23 -0.459606 
24 -0.594887 
25 -0.716649 
26 -0.820075 
27 -0.898466 
28 -0.952670 
29 -0.985746 
30 -0.997108 
31 -0.986188 
32 -0.952411 
33 -0.893036 
34 -0.807931 
35 -0.704315 
36 -0.586353 
37 -0.448739 
38 -0.292367 
39 -0.136555 
Zone T= "4"
I=40 
0 0.003619 
1 0.141620 
2 0.291085 
3 0.443819 
4 0.586737 
5 0.711824 
6 0.811170 
7 0.883758 
8 0.936678 
9 0.974341 
10 0.991108 
11 0.982804 
12 0.952038 
13 0.899274 
14 0.821598 
15 0.722102 
16 0.604389 
17 0.464971 
18 0.308981 
19 0.153676 
20 0.005872 
21 -0.149169 
22 -0.309193 
23 -0.459912 
24 -0.595270 
25 -0.717156 
26 -0.820603 
27 -0.898764 
28 -0.952729 
29 -0.985696 
30 -0.997019 
31 -0.986170 
32 -0.952504 
33 -0.893075 
34 -0.807844 
35 -0.704241 
36 -0.586243 
37 -0.448288 
38 -0.291533 
39 -0.135810 
Zone T= "5"
I=40 
0 0.003756 
1 0.141100 
2 0.290289 
3 0.443219 
4 0.586536 
5 0.711939 
6 0.811319 
7 0.883574 
8 0.936059 
9 0.973610 
10 0.990591 
11 0.982531 
12 0.952026 
13 0.899610 
14 0.822200 
15 0.722851 
16 0.605226 
17 0.465593 
18 0.309089 
19 0.153588 
20 0.006066 
21 -0.148883 
22 -0.309237 
23 -0.460219 
24 -0.595657 
25 -0.717664 
26 -0.821124 
27 -0.899054 
28 -0.952785 
29 -0.985649 
30 -0.996936 
31 -0.986156 
32 -0.952595 
33 -0.893109 
34 -0.807757 
35 -0.704170 
36 -0.586125 
37 -0.447826 
38 -0.290709 
39 -0.135085 
Zone T= "6"
I=40 
0 0.003889 
1 0.140596 
2 0.289505 
3 0.442614 
4 0.586322 
5 0.712044 
6 0.811470 
7 0.883404 
8 0.935453 
9 0.972878 
10 0.990066 
11 0.982255 
12 0.952012 
13 0.899940 
14 0.822797 
15 0.723599 
16 0.606064 
17 0.466222 
18 0.309207 
19 0.153505 
20 0.006254 
21 -0.148602 
22 -0.309282 
23 -0.460526 
24 -0.596048 
25 -0.718173 
26 -0.821638 
27 -0.899336 
28 -0.952838 
29 -0.985605 
30 -0.996859 
31 -0.986146 
32 -0.952683 
33 -0.893137 
34 -0.807671 
35 -0.704101 
36 -0.585999 
37 -0.447353 
38 -0.289894 
39 -0.134381 
Zone T= "7"
I=40 
0 0.004019 
1 0.140107 
2 0.288731 
3 0.442006 
4 0.586096 
5 0.712139 
6 0.811621 
7 0.883249 
8 0.934861 
9 0.972146 
10 0.989534 
11 0.981974 
12 0.951993 
13 0.900263 
14 0.823390 
15 0.724346 
16 0.606903 
17 0.466856 
18 0.309336 
19 0.153425 
20 0.006435 
21 -0.148328 
22 -0.309327 
23 -0.460834 
24 -0.596443 
25 -0.718681 
26 -0.822146 
27 -0.899611 
28 -0.952889 
29 -0.985563 
30 -0.996788 
31 -0.986141 
32 -0.952770 
33 -0.893160 
34 -0.807585 
35 -0.704033 
36 -0.585863 
37 -0.446871 
38 -0.289088 
39 -0.133696 
Zone T= "8"
I=40 
0 0.004146 
1 0.139631 
2 0.287968 
3 0.441394 
4 0.585857 
5 0.712223 
6 0.811773 
7 0.883107 
8 0.934282 
9 0.971414 
10 0.988994 
11 0.981689 
12 0.951971 
13 0.900580 
14 0.823978 
15 0.725093 
16 0.607743 
17 0.467497 
18 0.309475 
19 0.153350 
20 0.006611 
21 -0.148061 
22 -0.309372 
23 -0.461142 
24 -0.596841 
25 -0.719190 
26 -0.822648 
27 -0.899879 
28 -0.952938 
29 -0.985524 
30 -0.996722 
31 -0.986139 
32 -0.952853 
33 -0.893178 
34 -0.807501 
35 -0.703967 
36 -0.585720 
37 -0.446381 
38 -0.288291 
39 -0.133030 
Zone T= "9"
I=40 
0 0.004270 
1 0.139170 
2 0.287216 
3 0.440779 
4 0.585607 
5 0.712296 
6 0.811924 
7 0.882979 
8 0.933718 
9 0.970684 
10 0.988448 
11 0.981399 
12 0.951946 
13 0.900891 
14 0.824561 
15 0.725838 
16 0.608584 
17 0.468144 
18 0.309624 
19 0.153279 
20 0.006781 
21 -0.147799 
22 -0.309418 
23 -0.461451 
24 -0.597243 
25 -0.719698 
26 -0.823142 
27 -0.900139 
28 -0.952986 
29 -0.985489 
30 -0.996661 
31 -0.986141 
32 -0.952934 
33 -0.893192 
34 -0.807417 
35 -0.703901 
36 -0.585567 
37 -0.445882 
38 -0.287504 
39 -0.132382 
Zone T= "10"
I=40 
0 0.004390 
1 0.138722 
2 0.286475 
3 0.440161 
4 0.585346 
5 0.712357 
6 0.812076 
7 0.882864 
8 0.933168 
9 0.969955 
10 0.987894 
11 0.981104 
12 0.951917 
13 0.901195 
14 0.825140 
15 0.726582 
16 0.609426 
17 0.468796 
18 0.309783 
19 0.153212 
20 0.006946 
21 -0.147544 
22 -0.309464 
23 -0.461760 
24 -0.597648 
25 -0.720206 
26 -0.823630 
27 -0.900394 
28 -0.953031 
29 -0.985456 
30 -0.996606 
31 -0.986146 
32 -0.953012 
33 -0.893202 
34 -0.807335 
35 -0.703836 
36 -0.585406 
37 -0.445377 
38 -0.286726 
39 -0.131751 
Zone T= "11"
I=40 
0 0.004509 
1 0.138286 
2 0.285745 
3 0.439540 
4 0.585073 
5 0.712406 
6 0.812226 
7 0.882762 
8 0.932632 
9 0.969229 
10 0.987333 
11 0.980804 
12 0.951884 
13 0.901494 
14 0.825713 
15 0.727325 
16 0.610269 
17 0.469454 
18 0.309952 
19 0.153150 
20 0.007105 
21 -0.147294 
22 -0.309511 
23 -0.462071 
24 -0.598057 
25 -0.720713 
26 -0.824110 
27 -0.900641 
28 -0.953075 
29 -0.985426 
30 -0.996556 
31 -0.986154 
32 -0.953087 
33 -0.893208 
34 -0.807253 
35 -0.703770 
36 -0.585236 
37 -0.444864 
38 -0.285958 
39 -0.131137 
Zone T= "12"
I=40 
0 0.004624 
1 0.137863 
2 0.285025 
3 0.438918 
4 0.584788 
5 0.712444 
6 0.812375 
7 0.882672 
8 0.932111 
9 0.968505 
10 0.986766 
11 0.980498 
12 0.951847 
13 0.901787 
14 0.826282 
15 0.728066 
16 0.611114 
17 0.470118 
18 0.310131 
19 0.153092 
20 0.007259 
21 -0.147051 
22 -0.309559 
23 -0.462383 
24 -0.598468 
25 -0.721219 
26 -0.824584 
27 -0.900883 
28 -0.953117 
29 -0.985399 
30 -0.996512 
31 -0.986164 
32 -0.953159 
33 -0.893210 
34 -0.807173 
35 -0.703704 
36 -0.585058 
37 -0.444346 
38 -0.285199 
39 -0.130538 
Zone T= "13"
I=40 
0 0.004738 
1 0.137451 
2 0.284315 
3 0.438294 
4 0.584493 
5 0.712469 
6 0.812523 
7 0.882594 
8 0.931604 
9 0.967784 
10 0.986192 
11 0.980186 
12 0.951807 
13 0.902075 
14 0.826846 
15 0.728805 
16 0.611960 
17 0.470788 
18 0.310319 
19 0.153038 
20 0.007408 
21 -0.146813 
22 -0.309607 
23 -0.462695 
24 -0.598883 
25 -0.721723 
26 -0.825051 
27 -0.901118 
28 -0.953159 
29 -0.985375 
30 -0.996472 
31 -0.986177 
32 -0.953227 
33 -0.893210 
34 -0.807095 
35 -0.703637 
36 -0.584871 
37 -0.443822 
38 -0.284449 
39 -0.129955 
Zone T= "14"
I=40 
0 0.004849 
1 0.137051 
2 0.283615 
3 0.437669 
4 0.584187 
5 0.712483 
6 0.812668 
7 0.882527 
8 0.931112 
9 0.967068 
10 0.985612 
11 0.979869 
12 0.951763 
13 0.902357 
14 0.827404 
15 0.729543 
16 0.612807 
17 0.471464 
18 0.310518 
19 0.152989 
20 0.007552 
21 -0.146582 
22 -0.309657 
23 -0.463009 
24 -0.599302 
25 -0.722227 
26 -0.825512 
27 -0.901348 
28 -0.953199 
29 -0.985354 
30 -0.996437 
31 -0.986192 
32 -0.953293 
33 -0.893207 
34 -0.807017 
35 -0.703569 
36 -0.584676 
37 -0.443294 
38 -0.283709 
39 -0.129387 
Zone T= "0"
I=40 
0 0.004946 
1 0.136697 
2 0.282949 
3 0.437031 
4 0.583862 
5 0.712475 
6 0.812821 
7 0.882483 
8 0.930625 
9 0.966343 
10 0.985007 
11 0.979559 
12 0.951710 
13 0.902599 
14 0.827935 
15 0.730277 
16 0.613658 
17 0.472174 
18 0.310690 
19 0.152914 
20 0.007681 
21 -0.146347 
22 -0.309707 
23 -0.463326 
24 -0.599695 
25 -0.722745 
26 -0.825942 
27 -0.901567 
28 -0.953257 
29 -0.985346 
30 -0.996396 
31 -0.986173 
32 -0.953325 
33 -0.893204 
34 -0.806925 
35 -0.703530 
36 -0.584449 
37 -0.442729 
38 -0.282990 
39 -0.128834 
Zone T= "1"
I=40 
0 0.005057 
1 0.136347 
2 0.282290 
3 0.436400 
4 0.583519 
5 0.712459 
6 0.812968 
7 0.882448 
8 0.930159 
9 0.965614 
10 0.984404 
11 0.979238 
12 0.951653 
13 0.902842 
14 0.828458 
15 0.731004 
16 0.614522 
17 0.472876 
18 0.310883 
19 0.152836 
20 0.007810 
21 -0.146120 
22 -0.309761 
23 -0.463635 
24 -0.600108 
25 -0.723243 
26 -0.826379 
27 -0.901778 
28 -0.953311 
29 -0.985346 
30 -0.996353 
31 -0.986158 
32 -0.953361 
33 -0.893185 
34 -0.806853 
35 -0.703468 
36 -0.584224 
37 -0.442163 
38 -0.282267 
39 -0.128312 
Zone T= "2"
I=40 
0 0.005165 
1 0.136006 
2 0.281639 
3 0.435770 
4 0.583170 
5 0.712431 
6 0.813112 
7 0.882425 
8 0.929707 
9 0.964891 
10 0.983797 
11 0.978908 
12 0.951592 
13 0.903083 
14 0.828974 
15 0.731726 
16 0.615388 
17 0.473582 
18 0.311087 
19 0.152765 
20 0.007932 
21 -0.145900 
22 -0.309813 
23 -0.463947 
24 -0.600525 
25 -0.723737 
26 -0.826810 
27 -0.901984 
28 -0.953364 
29 -0.985348 
30 -0.996315 
31 -0.986144 
32 -0.953395 
33 -0.893165 
34 -0.806783 
35 -0.703403 
36 -0.583992 
37 -0.441595 
38 -0.281553 
39 -0.127803 
Zone T= "3"
I=40 
0 0.005271 
1 0.135675 
2 0.280998 
3 0.435140 
4 0.582811 
5 0.712391 
6 0.813251 
7 0.882412 
8 0.929270 
9 0.964174 
10 0.983184 
11 0.978570 
12 0.951527 
13 0.903320 
14 0.829485 
15 0.732446 
16 0.616255 
17 0.474293 
18 0.311300 
19 0.152700 
20 0.008050 
21 -0.145686 
22 -0.309866 
23 -0.464260 
24 -0.600946 
25 -0.724229 
26 -0.827234 
27 -0.902187 
28 -0.953416 
29 -0.985352 
30 -0.996280 
31 -0.986132 
32 -0.953427 
33 -0.893144 
34 -0.806713 
35 -0.703334 
36 -0.583751 
37 -0.441025 
38 -0.280849 
39 -0.127307 
Zone T= "4"
I=40 
0 0.005376 
1 0.135353 
2 0.280366 
3 0.434510 
4 0.582445 
5 0.712340 
6 0.813386 
7 0.882409 
8 0.928848 
9 0.963463 
10 0.982566 
11 0.978224 
12 0.951458 
13 0.903555 
14 0.829989 
15 0.733162 
16 0.617123 
17 0.475010 
18 0.311524 
19 0.152641 
20 0.008162 
21 -0.145478 
22 -0.309920 
23 -0.464575 
24 -0.601369 
25 -0.724717 
26 -0.827651 
27 -0.902387 
28 -0.953469 
29 -0.985358 
30 -0.996248 
31 -0.986122 
32 -0.953457 
33 -0.893122 
34 -0.806645 
35 -0.703262 
36 -0.583503 
37 -0.440454 
38 -0.280154 
39 -0.126822 
Zone T= "5"
I=40 
0 0.005478 
1 0.135038 
2 0.279743 
3 0.433883 
4 0.582070 
5 0.712277 
6 0.813517 
7 0.882415 
8 0.928441 
9 0.962760 
10 0.981942 
11 0.977869 
12 0.951386 
13 0.903786 
14 0.830489 
15 0.733874 
16 0.617991 
17 0.475732 
18 0.311757 
19 0.152587 
20 0.008270 
21 -0.145275 
22 -0.309974 
23 -0.464891 
24 -0.601795 
25 -0.725203 
26 -0.828062 
27 -0.902583 
28 -0.953521 
29 -0.985365 
30 -0.996220 
31 -0.986113 
32 -0.953485 
33 -0.893099 
34 -0.806577 
35 -0.703185 
36 -0.583247 
37 -0.439881 
38 -0.279470 
39 -0.126349 
Zone T= "6"
I=40 
0 0.005578 
1 0.134731 
2 0.279129 
3 0.433256 
4 0.581688 
5 0.712202 
6 0.813644 
7 0.882429 
8 0.928050 
9 0.962064 
10 0.981314 
11 0.977507 
12 0.951309 
13 0.904013 
14 0.830983 
15 0.734583 
16 0.618859 
17 0.476459 
18 0.312000 
19 0.152539 
20 0.008373 
21 -0.145078 
22 -0.310029 
23 -0.465209 
24 -0.602223 
25 -0.725686 
26 -0.828467 
27 -0.902776 
28 -0.953572 
29 -0.985374 
30 -0.996196 
31 -0.986106 
32 -0.953511 
33 -0.893075 
34 -0.806510 
35 -0.703105 
36 -0.582983 
37 -0.439308 
38 -0.278794 
39 -0.125886 
Zone T= "7"
I=40 
0 0.005675 
1 0.134431 
2 0.278523 
3 0.432632 
4 0.581298 
5 0.712117 
6 0.813766 
7 0.882451 
8 0.927674 
9 0.961376 
10 0.980681 
11 0.977136 
12 0.951228 
13 0.904237 
14 0.831473 
15 0.735289 
16 0.619727 
17 0.477191 
18 0.312254 
19 0.152496 
20 0.008472 
21 -0.144887 
22 -0.310085 
23 -0.465529 
24 -0.602654 
25 -0.726165 
26 -0.828865 
27 -0.902965 
28 -0.953624 
29 -0.985385 
30 -0.996174 
31 -0.986101 
32 -0.953535 
33 -0.893050 
34 -0.806444 
35 -0.703020 
36 -0.582712 
37 -0.438734 
38 -0.278129 
39 -0.125435 
Zone T= "8"
I=40 
0 0.005771 
1 0.134137 
2 0.277926 
3 0.432009 
4 0.580902 
5 0.712021 
6 0.813882 
7 0.882481 
8 0.927313 
9 0.960697 
10 0.980043 
11 0.976757 
12 0.951142 
13 0.904458 
14 0.831958 
15 0.735990 
16 0.620594 
17 0.477929 
18 0.312517 
19 0.152458 
20 0.008568 
21 -0.144701 
22 -0.310143 
23 -0.465851 
24 -0.603087 
25 -0.726642 
26 -0.829258 
27 -0.903151 
28 -0.953676 
29 -0.985397 
30 -0.996156 
31 -0.986096 
32 -0.953557 
33 -0.893025 
34 -0.806377 
35 -0.702930 
36 -0.582434 
37 -0.438161 
38 -0.277473 
39 -0.124993 
Zone T= "9"
I=40 
0 0.005864 
1 0.133851 
2 0.277338 
3 0.431388 
4 0.580498 
5 0.711915 
6 0.813994 
7 0.882518 
8 0.926966 
9 0.960026 
10 0.979402 
11 0.976370 
12 0.951051 
13 0.904674 
14 0.832439 
15 0.736688 
16 0.621461 
17 0.478672 
18 0.312789 
19 0.152426 
20 0.008659 
21 -0.144520 
22 -0.310202 
23 -0.466174 
24 -0.603522 
25 -0.727115 
26 -0.829644 
27 -0.903335 
28 -0.953728 
29 -0.985411 
30 -0.996141 
31 -0.986093 
32 -0.953578 
33 -0.893000 
34 -0.806312 
35 -0.702837 
36 -0.582148 
37 -0.437587 
38 -0.276826 
39 -0.124561 
Zone T= "10"
I=40 
0 0.005956 
1 0.133570 
2 0.276758 
3 0.430769 
4 0.580088 
5 0.711797 
6 0.814100 
7 0.882561 
8 0.926635 
9 0.959365 
10 0.978758 
11 0.975975 
12 0.950955 
13 0.904887 
14 0.832915 
15 0.737383 
16 0.622328 
17 0.479421 
18 0.313072 
19 0.152399 
20 0.008747 
21 -0.144345 
22 -0.310262 
23 -0.466500 
24 -0.603959 
25 -0.727585 
26 -0.830024 
27 -0.903515 
28 -0.953780 
29 -0.985427 
30 -0.996128 
31 -0.986091 
32 -0.953597 
33 -0.892974 
34 -0.806246 
35 -0.702738 
36 -0.581857 
37 -0.437015 
38 -0.276188 
39 -0.124139 
Zone T= "11"
I=40 
0 0.006046 
1 0.133296 
2 0.276186 
3 0.430153 
4 0.579672 
5 0.711670 
6 0.814200 
7 0.882610 
8 0.926318 
9 0.958714 
10 0.978111 
11 0.975571 
12 0.950853 
13 0.905097 
14 0.833386 
15 0.738073 
16 0.623194 
17 0.480174 
18 0.313364 
19 0.152377 
20 0.008831 
21 -0.144174 
22 -0.310324 
23 -0.466827 
24 -0.604398 
25 -0.728052 
26 -0.830398 
27 -0.903693 
28 -0.953832 
29 -0.985445 
30 -0.996119 
31 -0.986089 
32 -0.953614 
33 -0.892948 
34 -0.806180 
35 -0.702635 
36 -0.581559 
37 -0.436443 
38 -0.275560 
39 -0.123725 
Zone T= "12"
I=40 
0 0.006133 
1 0.133028 
2 0.275623 
3 0.429539 
4 0.579249 
5 0.711532 
6 0.814294 
7 0.882665 
8 0.926015 
9 0.958072 
10 0.977461 
11 0.975159 
12 0.950746 
13 0.905303 
14 0.833853 
15 0.738760 
16 0.624058 
17 0.480932 
18 0.313666 
19 0.152360 
20 0.008913 
21 -0.144009 
22 -0.310388 
23 -0.467156 
24 -0.604838 
25 -0.728516 
26 -0.830767 
27 -0.903868 
28 -0.953885 
29 -0.985464 
30 -0.996112 
31 -0.986089 
32 -0.953630 
33 -0.892922 
34 -0.806114 
35 -0.702527 
36 -0.581254 
37 -0.435872 
38 -0.274940 
39 -0.123321 
Zone T= "13"
I=40 
0 0.006219 
1 0.132765 
2 0.275067 
3 0.428927 
4 0.578821 
5 0.711385 
6 0.814383 
7 0.882725 
8 0.925726 
9 0.957440 
10 0.976809 
11 0.974738 
12 0.950632 
13 0.905504 
14 0.834316 
15 0.739443 
16 0.624923 
17 0.481696 
18 0.313977 
19 0.152349 
20 0.008990 
21 -0.143848 
22 -0.310454 
23 -0.467486 
24 -0.605280 
25 -0.728976 
26 -0.831130 
27 -0.904041 
28 -0.953938 
29 -0.985484 
30 -0.996107 
31 -0.986089 
32 -0.953645 
33 -0.892895 
34 -0.806048 
35 -0.702413 
36 -0.580944 
37 -0.435303 
38 -0.274329 
39 -0.122925 
Zone T= "14"
I=40 
0 0.006303 
1 0.132508 
2 0.274519 
3 0.428319 
4 0.578388 
5 0.711227 
6 0.814466 
7 0.882790 
8 0.925451 
9 0.956819 
10 0.976155 
11 0.974310 
12 0.950513 
13 0.905702 
14 0.834776 
15 0.740122 
16 0.625786 
17 0.482465 
18 0.314298 
19 0.152343 
20 0.009065 
21 -0.143692 
22 -0.310521 
23 -0.467819 
24 -0.605722 
25 -0.729432 
26 -0.831488 
27 -0.904212 
28 -0.953991 
29 -0.985507 
30 -0.996105 
31 -0.986090 
32 -0.953658 
33 -0.892869 
34 -0.805981 
35 -0.702295 
36 -0.580628 
37 -0.434735 
38 -0.273727 
39 -0.122537 
Zone T= "0"
I=40 
0 0.006378 
1 0.132234 
2 0.273991 
3 0.427721 
4 0.577934 
5 0.711095 
6 0.814554 
7 0.882864 
8 0.925167 
9 0.956246 
10 0.975528 
11 0.973865 
12 0.950416 
13 0.905917 
14 0.835217 
15 0.740794 
16 0.626649 
17 0.483246 
18 0.314660 
19 0.152327 
20 0.009140 
21 -0.143539 
22 -0.310584 
23 -0.468165 
24 -0.606161 
25 -0.729890 
26 -0.831847 
27 -0.904386 
28 -0.954047 
29 -0.985527 
30 -0.996091 
31 -0.986097 
32 -0.953667 
33 -0.892841 
34 -0.805912 
35 -0.702178 
36 -0.580346 
37 -0.434172 
38 -0.273128 
39 -0.122173 
Zone T= "1"
I=40 
0 0.006437 
1 0.131978 
2 0.273466 
3 0.427122 
4 0.577486 
5 0.710938 
6 0.814651 
7 0.882928 
8 0.924907 
9 0.955675 
10 0.974897 
11 0.973423 
12 0.950303 
13 0.906128 
14 0.835663 
15 0.741453 
16 0.627511 
17 0.484042 
18 0.315017 
19 0.152329 
20 0.009204 
21 -0.143387 
22 -0.310654 
23 -0.468506 
24 -0.606607 
25 -0.730342 
26 -0.832200 
27 -0.904559 
28 -0.954104 
29 -0.985544 
30 -0.996085 
31 -0.986099 
32 -0.953679 
33 -0.892810 
34 -0.805840 
35 -0.702064 
36 -0.580047 
37 -0.433620 
38 -0.272538 
39 -0.121809 
Zone T= "2"
I=40 
0 0.006495 
1 0.131727 
2 0.272950 
3 0.426524 
4 0.577035 
5 0.710772 
6 0.814740 
7 0.882998 
8 0.924662 
9 0.955112 
10 0.974267 
11 0.972976 
12 0.950180 
13 0.906336 
14 0.836109 
15 0.742107 
16 0.628372 
17 0.484845 
18 0.315381 
19 0.152338 
20 0.009267 
21 -0.143241 
22 -0.310726 
23 -0.468848 
24 -0.607055 
25 -0.730790 
26 -0.832548 
27 -0.904731 
28 -0.954161 
29 -0.985563 
30 -0.996081 
31 -0.986102 
32 -0.953690 
33 -0.892779 
34 -0.805769 
35 -0.701945 
36 -0.579742 
37 -0.433070 
38 -0.271956 
39 -0.121452 
Zone T= "3"
I=40 
0 0.006551 
1 0.131480 
2 0.272440 
3 0.425929 
4 0.576579 
5 0.710597 
6 0.814822 
7 0.883072 
8 0.924431 
9 0.954558 
10 0.973638 
11 0.972523 
12 0.950047 
13 0.906539 
14 0.836553 
15 0.742756 
16 0.629231 
17 0.485652 
18 0.315753 
19 0.152353 
20 0.009328 
21 -0.143100 
22 -0.310800 
23 -0.469191 
24 -0.607504 
25 -0.731234 
26 -0.832890 
27 -0.904902 
28 -0.954217 
29 -0.985583 
30 -0.996081 
31 -0.986106 
32 -0.953699 
33 -0.892748 
34 -0.805698 
35 -0.701821 
36 -0.579431 
37 -0.432522 
38 -0.271384 
39 -0.121101 
Zone T= "4"
I=40 
0 0.006606 
1 0.131238 
2 0.271938 
3 0.425337 
4 0.576120 
5 0.710413 
6 0.814897 
7 0.883151 
8 0.924211 
9 0.954013 
10 0.973010 
11 0.972064 
12 0.949905 
13 0.906737 
14 0.836995 
15 0.743401 
16 0.630088 
17 0.486464 
18 0.316134 
19 0.152373 
20 0.009387 
21 -0.142965 
22 -0.310876 
23 -0.469536 
24 -0.607954 
25 -0.731675 
26 -0.833228 
27 -0.905070 
28 -0.954274 
29 -0.985605 
30 -0.996083 
31 -0.986110 
32 -0.953707 
33 -0.892716 
34 -0.805627 
35 -0.701693 
36 -0.579115 
37 -0.431977 
38 -0.270820 
39 -0.120757 
Zone T= "5"
I=40 
0 0.006659 
1 0.131001 
2 0.271442 
3 0.424748 
4 0.575657 
5 0.710220 
6 0.814966 
7 0.883234 
8 0.924005 
9 0.953478 
10 0.972383 
11 0.971599 
12 0.949755 
13 0.906930 
14 0.837435 
15 0.744043 
16 0.630943 
17 0.487280 
18 0.316525 
19 0.152398 
20 0.009443 
21 -0.142834 
22 -0.310954 
23 -0.469882 
24 -0.608405 
25 -0.732113 
26 -0.833561 
27 -0.905237 
28 -0.954331 
29 -0.985629 
30 -0.996087 
31 -0.986114 
32 -0.953714 
33 -0.892685 
34 -0.805554 
35 -0.701560 
36 -0.578794 
37 -0.431434 
38 -0.270265 
39 -0.120420 
Zone T= "6"
I=40 
0 0.006712 
1 0.130767 
2 0.270952 
3 0.424163 
4 0.575190 
5 0.710017 
6 0.815027 
7 0.883320 
8 0.923810 
9 0.952953 
10 0.971758 
11 0.971127 
12 0.949596 
13 0.907117 
14 0.837873 
15 0.744682 
16 0.631795 
17 0.488101 
18 0.316925 
19 0.152430 
20 0.009498 
21 -0.142707 
22 -0.311034 
23 -0.470231 
24 -0.608856 
25 -0.732547 
26 -0.833890 
27 -0.905402 
28 -0.954389 
29 -0.985654 
30 -0.996094 
31 -0.986119 
32 -0.953720 
33 -0.892653 
34 -0.805481 
35 -0.701422 
36 -0.578468 
37 -0.430893 
38 -0.269718 
39 -0.120090 
Zone T= "7"
I=40 
0 0.006764 
1 0.130538 
2 0.270469 
3 0.423581 
4 0.574720 
5 0.709806 
6 0.815082 
7 0.883410 
8 0.923626 
9 0.952438 
10 0.971135 
11 0.970650 
12 0.949429 
13 0.907299 
14 0.838308 
15 0.745318 
16 0.632645 
17 0.488925 
18 0.317335 
19 0.152466 
20 0.009550 
21 -0.142585 
22 -0.311118 
23 -0.470581 
24 -0.609307 
25 -0.732977 
26 -0.834215 
27 -0.905565 
28 -0.954447 
29 -0.985682 
30 -0.996102 
31 -0.986124 
32 -0.953725 
33 -0.892622 
34 -0.805407 
35 -0.701279 
36 -0.578138 
37 -0.430355 
38 -0.269179 
39 -0.119767 
Zone T= "8"
I=40 
0 0.006816 
1 0.130313 
2 0.269991 
3 0.423003 
4 0.574248 
5 0.709587 
6 0.815131 
7 0.883502 
8 0.923454 
9 0.951934 
10 0.970514 
11 0.970167 
12 0.949253 
13 0.907475 
14 0.838740 
15 0.745952 
16 0.633492 
17 0.489753 
18 0.317753 
19 0.152509 
20 0.009600 
21 -0.142467 
22 -0.311203 
23 -0.470933 
24 -0.609758 
25 -0.733404 
26 -0.834535 
27 -0.905726 
28 -0.954505 
29 -0.985710 
30 -0.996113 
31 -0.986130 
32 -0.953730 
33 -0.892591 
34 -0.805332 
35 -0.701131 
36 -0.577803 
37 -0.429820 
38 -0.268648 
39 -0.119450 
Zone T= "9"
I=40 
0 0.006866 
1 0.130092 
2 0.269519 
3 0.422428 
4 0.573772 
5 0.709359 
6 0.815172 
7 0.883597 
8 0.923293 
9 0.951441 
10 0.969896 
11 0.969678 
12 0.949069 
13 0.907645 
14 0.839170 
15 0.746582 
16 0.634337 
17 0.490585 
18 0.318181 
19 0.152557 
20 0.009648 
21 -0.142353 
22 -0.311291 
23 -0.471286 
24 -0.610209 
25 -0.733827 
26 -0.834851 
27 -0.905886 
28 -0.954564 
29 -0.985741 
30 -0.996125 