VARIABLES = "x", "y" 
Zone T= "0"
I=40 
0 0.000132 
1 0.155603 
2 0.308393 
3 0.453279 
4 0.587414 
5 0.707285 
6 0.808623 
7 0.890146 
8 0.950099 
9 0.986924 
10 0.999520 
11 0.987512 
12 0.951168 
13 0.891446 
14 0.809712 
15 0.707955 
16 0.588618 
17 0.454560 
18 0.309144 
19 0.155804 
20 0.000576 
21 -0.156141 
22 -0.308941 
23 -0.454064 
24 -0.588073 
25 -0.707548 
26 -0.809508 
27 -0.891395 
28 -0.951137 
29 -0.987371 
30 -0.999619 
31 -0.987540 
32 -0.951093 
33 -0.891120 
34 -0.809180 
35 -0.707101 
36 -0.587591 
37 -0.453784 
38 -0.308103 
39 -0.154525 
Zone T= "1"
I=40 
0 0.000452 
1 0.154800 
2 0.307635 
3 0.452687 
4 0.587041 
5 0.707325 
6 0.808385 
7 0.889254 
8 0.949112 
9 0.986187 
10 0.999036 
11 0.987312 
12 0.951269 
13 0.891903 
14 0.810411 
15 0.708740 
16 0.589515 
17 0.455190 
18 0.309047 
19 0.155533 
20 0.000823 
21 -0.155708 
22 -0.308847 
23 -0.454216 
24 -0.588329 
25 -0.707968 
26 -0.810025 
27 -0.891780 
28 -0.951176 
29 -0.987061 
30 -0.999272 
31 -0.987393 
32 -0.951095 
33 -0.891275 
34 -0.809347 
35 -0.707005 
36 -0.587482 
37 -0.453596 
38 -0.306964 
39 -0.152962 
Zone T= "2"
I=40 
0 0.000785 
1 0.154049 
2 0.306837 
3 0.452112 
4 0.586686 
5 0.707308 
6 0.808180 
7 0.888414 
8 0.948078 
9 0.985453 
10 0.998578 
11 0.987069 
12 0.951376 
13 0.892381 
14 0.811071 
15 0.709531 
16 0.590439 
17 0.455796 
18 0.308967 
19 0.155292 
20 0.001037 
21 -0.155287 
22 -0.308726 
23 -0.454384 
24 -0.588600 
25 -0.708364 
26 -0.810548 
27 -0.892175 
28 -0.951174 
29 -0.986754 
30 -0.998967 
31 -0.987224 
32 -0.951095 
33 -0.891463 
34 -0.809474 
35 -0.706901 
36 -0.587417 
37 -0.453352 
38 -0.305810 
39 -0.151491 
Zone T= "3"
I=40 
0 0.001118 
1 0.153335 
2 0.306026 
3 0.451539 
4 0.586336 
5 0.707261 
6 0.807995 
7 0.887612 
8 0.947026 
9 0.984712 
10 0.998129 
11 0.986806 
12 0.951479 
13 0.892865 
14 0.811714 
15 0.710325 
16 0.591374 
17 0.456397 
18 0.308901 
19 0.155065 
20 0.001232 
21 -0.154876 
22 -0.308595 
23 -0.454559 
24 -0.588876 
25 -0.708753 
26 -0.811074 
27 -0.892563 
28 -0.951148 
29 -0.986454 
30 -0.998684 
31 -0.987048 
32 -0.951099 
33 -0.891660 
34 -0.809575 
35 -0.706797 
36 -0.587369 
37 -0.453067 
38 -0.304652 
39 -0.150086 
Zone T= "4"
I=40 
0 0.001447 
1 0.152651 
2 0.305217 
3 0.450963 
4 0.585984 
5 0.707197 
6 0.807821 
7 0.886841 
8 0.945969 
9 0.983957 
10 0.997683 
11 0.986538 
12 0.951574 
13 0.893347 
14 0.812353 
15 0.711117 
16 0.592312 
17 0.457001 
18 0.308848 
19 0.154844 
20 0.001414 
21 -0.154471 
22 -0.308462 
23 -0.454737 
24 -0.589154 
25 -0.709141 
26 -0.811602 
27 -0.892939 
28 -0.951105 
29 -0.986163 
30 -0.998413 
31 -0.986871 
32 -0.951110 
33 -0.891857 
34 -0.809660 
35 -0.706699 
36 -0.587325 
37 -0.452751 
38 -0.303496 
39 -0.148732 
Zone T= "5"
I=40 
0 0.001768 
1 0.151995 
2 0.304414 
3 0.450381 
4 0.585627 
5 0.707123 
6 0.807657 
7 0.886097 
8 0.944914 
9 0.983186 
10 0.997233 
11 0.986268 
12 0.951659 
13 0.893823 
14 0.812990 
15 0.711908 
16 0.593249 
17 0.457614 
18 0.308810 
19 0.154625 
20 0.001587 
21 -0.154072 
22 -0.308330 
23 -0.454917 
24 -0.589432 
25 -0.709533 
26 -0.812130 
27 -0.893298 
28 -0.951051 
29 -0.985879 
30 -0.998150 
31 -0.986698 
32 -0.951129 
33 -0.892049 
34 -0.809732 
35 -0.706608 
36 -0.587280 
37 -0.452406 
38 -0.302347 
39 -0.147422 
Zone T= "6"
I=40 
0 0.002082 
1 0.151363 
2 0.303619 
3 0.449794 
4 0.585265 
5 0.707039 
6 0.807500 
7 0.885377 
8 0.943865 
9 0.982401 
10 0.996778 
11 0.986000 
12 0.951736 
13 0.894290 
14 0.813628 
15 0.712697 
16 0.594184 
17 0.458236 
18 0.308785 
19 0.154408 
20 0.001753 
21 -0.153679 
22 -0.308202 
23 -0.455096 
24 -0.589709 
25 -0.709929 
26 -0.812656 
27 -0.893641 
28 -0.950987 
29 -0.985603 
30 -0.997894 
31 -0.986530 
32 -0.951154 
33 -0.892233 
34 -0.809793 
35 -0.706523 
36 -0.587230 
37 -0.452037 
38 -0.301206 
39 -0.146154 
Zone T= "7"
I=40 
0 0.002387 
1 0.150754 
2 0.302834 
3 0.449200 
4 0.584896 
5 0.706947 
6 0.807349 
7 0.884682 
8 0.942824 
9 0.981600 
10 0.996317 
11 0.985734 
12 0.951804 
13 0.894749 
14 0.814267 
15 0.713484 
16 0.595115 
17 0.458868 
18 0.308773 
19 0.154191 
20 0.001912 
21 -0.153290 
22 -0.308079 
23 -0.455275 
24 -0.589985 
25 -0.710331 
26 -0.813179 
27 -0.893967 
28 -0.950916 
29 -0.985335 
30 -0.997644 
31 -0.986368 
32 -0.951185 
33 -0.892409 
34 -0.809845 
35 -0.706444 
36 -0.587174 
37 -0.451644 
38 -0.300073 
39 -0.144923 
Zone T= "8"
I=40 
0 0.002685 
1 0.150167 
2 0.302059 
3 0.448599 
4 0.584520 
5 0.706846 
6 0.807204 
7 0.884010 
8 0.941792 
9 0.980785 
10 0.995848 
11 0.985469 
12 0.951864 
13 0.895198 
14 0.814908 
15 0.714270 
16 0.596043 
17 0.459509 
18 0.308775 
19 0.153975 
20 0.002066 
21 -0.152908 
22 -0.307959 
23 -0.455453 
24 -0.590260 
25 -0.710739 
26 -0.813699 
27 -0.894276 
28 -0.950838 
29 -0.985073 
30 -0.997398 
31 -0.986212 
32 -0.951222 
33 -0.892577 
34 -0.809890 
35 -0.706372 
36 -0.587111 
37 -0.451229 
38 -0.298950 
39 -0.143730 
Zone T= "9"
I=40 
0 0.002975 
1 0.149601 
2 0.301293 
3 0.447994 
4 0.584137 
5 0.706737 
6 0.807063 
7 0.883360 
8 0.940771 
9 0.979957 
10 0.995370 
11 0.985207 
12 0.951916 
13 0.895638 
14 0.815549 
15 0.715055 
16 0.596968 
17 0.460161 
18 0.308790 
19 0.153760 
20 0.002214 
21 -0.152531 
22 -0.307843 
23 -0.455630 
24 -0.590536 
25 -0.711152 
26 -0.814214 
27 -0.894569 
28 -0.950754 
29 -0.984818 
30 -0.997158 
31 -0.986062 
32 -0.951264 
33 -0.892737 
34 -0.809928 
35 -0.706304 
36 -0.587039 
37 -0.450793 
38 -0.297836 
39 -0.142572 
Zone T= "10"
I=40 
0 0.003257 
1 0.149055 
2 0.300538 
3 0.447383 
4 0.583747 
5 0.706620 
6 0.806926 
7 0.882733 
8 0.939760 
9 0.979115 
10 0.994883 
11 0.984945 
12 0.951961 
13 0.896069 
14 0.816191 
15 0.715839 
16 0.597890 
17 0.460821 
18 0.308819 
19 0.153547 
20 0.002357 
21 -0.152159 
22 -0.307731 
23 -0.455807 
24 -0.590812 
25 -0.711570 
26 -0.814724 
27 -0.894846 
28 -0.950665 
29 -0.984570 
30 -0.996924 
31 -0.985918 
32 -0.951310 
33 -0.892888 
34 -0.809959 
35 -0.706242 
36 -0.586960 
37 -0.450338 
38 -0.296734 
39 -0.141448 
Zone T= "11"
I=40 
0 0.003533 
1 0.148529 
2 0.299792 
3 0.446768 
4 0.583350 
5 0.706494 
6 0.806792 
7 0.882128 
8 0.938762 
9 0.978262 
10 0.994386 
11 0.984685 
12 0.952001 
13 0.896490 
14 0.816832 
15 0.716623 
16 0.598810 
17 0.461490 
18 0.308860 
19 0.153336 
20 0.002495 
21 -0.151793 
22 -0.307622 
23 -0.455982 
24 -0.591090 
25 -0.711993 
26 -0.815229 
27 -0.895109 
28 -0.950571 
29 -0.984328 
30 -0.996694 
31 -0.985781 
32 -0.951359 
33 -0.893032 
34 -0.809985 
35 -0.706184 
36 -0.586871 
37 -0.449865 
38 -0.295642 
39 -0.140356 
Zone T= "12"
I=40 
0 0.003803 
1 0.148022 
2 0.299056 
3 0.446149 
4 0.582946 
5 0.706359 
6 0.806662 
7 0.881543 
8 0.937775 
9 0.977398 
10 0.993879 
11 0.984425 
12 0.952034 
13 0.896903 
14 0.817472 
15 0.717405 
16 0.599727 
17 0.462167 
18 0.308914 
19 0.153128 
20 0.002628 
21 -0.151433 
22 -0.307517 
23 -0.456158 
24 -0.591370 
25 -0.712420 
26 -0.815727 
27 -0.895357 
28 -0.950473 
29 -0.984092 
30 -0.996470 
31 -0.985649 
32 -0.951412 
33 -0.893169 
34 -0.810006 
35 -0.706130 
36 -0.586773 
37 -0.449373 
38 -0.294561 
39 -0.139297 
Zone T= "13"
I=40 
0 0.004066 
1 0.147532 
2 0.298330 
3 0.445527 
4 0.582535 
5 0.706216 
6 0.806534 
7 0.880979 
8 0.936801 
9 0.976523 
10 0.993362 
11 0.984165 
12 0.952063 
13 0.897306 
14 0.818110 
15 0.718186 
16 0.600643 
17 0.462852 
18 0.308981 
19 0.152923 
20 0.002756 
21 -0.151079 
22 -0.307414 
23 -0.456334 
24 -0.591653 
25 -0.712850 
26 -0.816219 
27 -0.895591 
28 -0.950371 
29 -0.983862 
30 -0.996251 
31 -0.985523 
32 -0.951468 
33 -0.893298 
34 -0.810023 
35 -0.706079 
36 -0.586666 
37 -0.448866 
38 -0.293493 
39 -0.138268 
Zone T= "14"
I=40 
0 0.004324 
1 0.147060 
2 0.297612 
3 0.444902 
4 0.582118 
5 0.706065 
6 0.806408 
7 0.880436 
8 0.935840 
9 0.975639 
10 0.992834 
11 0.983904 
12 0.952086 
13 0.897702 
14 0.818747 
15 0.718967 
16 0.601557 
17 0.463544 
18 0.309060 
19 0.152722 
20 0.002879 
21 -0.150730 
22 -0.307314 
23 -0.456510 
24 -0.591938 
25 -0.713284 
26 -0.816704 
27 -0.895811 
28 -0.950267 
29 -0.983638 
30 -0.996037 
31 -0.985403 
32 -0.951526 
33 -0.893420 
34 -0.810035 
35 -0.706031 
36 -0.586549 
37 -0.448343 
38 -0.292436 
39 -0.137269 
Zone T= "0"
I=40 
0 0.004574 
1 0.146604 
2 0.296898 
3 0.444265 
4 0.581709 
5 0.705910 
6 0.806287 
7 0.879928 
8 0.934910 
9 0.974771 
10 0.992309 
11 0.983635 
12 0.952094 
13 0.898107 
14 0.819389 
15 0.719739 
16 0.602482 
17 0.464269 
18 0.309130 
19 0.152512 
20 0.002978 
21 -0.150388 
22 -0.307221 
23 -0.456700 
24 -0.592207 
25 -0.713726 
26 -0.817164 
27 -0.896031 
28 -0.950144 
29 -0.983435 
30 -0.995831 
31 -0.985280 
32 -0.951591 
33 -0.893525 
34 -0.810052 
35 -0.705989 
36 -0.586413 
37 -0.447802 
38 -0.291376 
39 -0.136300 
Zone T= "1"
I=40 
0 0.004819 
1 0.146162 
2 0.296193 
3 0.443631 
4 0.581289 
5 0.705750 
6 0.806168 
7 0.879436 
8 0.933997 
9 0.973893 
10 0.991775 
11 0.983363 
12 0.952100 
13 0.898502 
14 0.820030 
15 0.720512 
16 0.603407 
17 0.464994 
18 0.309223 
19 0.152295 
20 0.003080 
21 -0.150054 
22 -0.307134 
23 -0.456882 
24 -0.592490 
25 -0.714157 
26 -0.817633 
27 -0.896222 
28 -0.950033 
29 -0.983231 
30 -0.995632 
31 -0.985167 
32 -0.951649 
33 -0.893632 
34 -0.810060 
35 -0.705949 
36 -0.586272 
37 -0.447241 
38 -0.290336 
39 -0.135356 
Zone T= "2"
I=40 
0 0.005060 
1 0.145735 
2 0.295496 
3 0.442996 
4 0.580862 
5 0.705581 
6 0.806052 
7 0.878961 
8 0.933098 
9 0.973010 
10 0.991229 
11 0.983089 
12 0.952103 
13 0.898887 
14 0.820668 
15 0.721286 
16 0.604328 
17 0.465725 
18 0.309329 
19 0.152081 
20 0.003177 
21 -0.149726 
22 -0.307050 
23 -0.457064 
24 -0.592776 
25 -0.714591 
26 -0.818093 
27 -0.896401 
28 -0.949920 
29 -0.983031 
30 -0.995437 
31 -0.985059 
32 -0.951709 
33 -0.893734 
34 -0.810065 
35 -0.705909 
36 -0.586121 
37 -0.446666 
38 -0.289309 
39 -0.134439 
Zone T= "3"
I=40 
0 0.005297 
1 0.145323 
2 0.294809 
3 0.442360 
4 0.580430 
5 0.705404 
6 0.805937 
7 0.878504 
8 0.932213 
9 0.972122 
10 0.990672 
11 0.982811 
12 0.952102 
13 0.899263 
14 0.821302 
15 0.722060 
16 0.605248 
17 0.466463 
18 0.309449 
19 0.151872 
20 0.003270 
21 -0.149404 
22 -0.306968 
23 -0.457247 
24 -0.593066 
25 -0.715026 
26 -0.818545 
27 -0.896570 
28 -0.949806 
29 -0.982837 
30 -0.995247 
31 -0.984957 
32 -0.951769 
33 -0.893830 
34 -0.810068 
35 -0.705870 
36 -0.585959 
37 -0.446080 
38 -0.288294 
39 -0.133548 
Zone T= "4"
I=40 
0 0.005530 
1 0.144925 
2 0.294131 
3 0.441725 
4 0.579992 
5 0.705218 
6 0.805823 
7 0.878063 
8 0.931342 
9 0.971228 
10 0.990103 
11 0.982531 
12 0.952097 
13 0.899630 
14 0.821933 
15 0.722833 
16 0.606167 
17 0.467206 
18 0.309580 
19 0.151669 
20 0.003357 
21 -0.149088 
22 -0.306888 
23 -0.457430 
24 -0.593360 
25 -0.715463 
26 -0.818988 
27 -0.896728 
28 -0.949691 
29 -0.982648 
30 -0.995063 
31 -0.984858 
32 -0.951830 
33 -0.893922 
34 -0.810068 
35 -0.705831 
36 -0.585788 
37 -0.445483 
38 -0.287293 
39 -0.132682 
Zone T= "5"
I=40 
0 0.005758 
1 0.144541 
2 0.293463 
3 0.441089 
4 0.579549 
5 0.705024 
6 0.805708 
7 0.877639 
8 0.930486 
9 0.970331 
10 0.989524 
11 0.982247 
12 0.952089 
13 0.899990 
14 0.822560 
15 0.723606 
16 0.607085 
17 0.467956 
18 0.309723 
19 0.151470 
20 0.003439 
21 -0.148778 
22 -0.306810 
23 -0.457614 
24 -0.593657 
25 -0.715901 
26 -0.819424 
27 -0.896876 
28 -0.949574 
29 -0.982464 
30 -0.994884 
31 -0.984765 
32 -0.951891 
33 -0.894008 
34 -0.810065 
35 -0.705790 
36 -0.585605 
37 -0.444876 
38 -0.286305 
39 -0.131840 
Zone T= "6"
I=40 
0 0.005982 
1 0.144169 
2 0.292803 
3 0.440453 
4 0.579102 
5 0.704822 
6 0.805593 
7 0.877230 
8 0.929646 
9 0.969430 
10 0.988933 
11 0.981958 
12 0.952077 
13 0.900342 
14 0.823183 
15 0.724379 
16 0.608002 
17 0.468710 
18 0.309878 
19 0.151278 
20 0.003516 
21 -0.148475 
22 -0.306733 
23 -0.457799 
24 -0.593958 
25 -0.716340 
26 -0.819850 
27 -0.897015 
28 -0.949457 
29 -0.982285 
30 -0.994710 
31 -0.984676 
32 -0.951952 
33 -0.894091 
34 -0.810061 
35 -0.705749 
36 -0.585413 
37 -0.444261 
38 -0.285330 
39 -0.131021 
Zone T= "7"
I=40 
0 0.006201 
1 0.143811 
2 0.292153 
3 0.439817 
4 0.578649 
5 0.704612 
6 0.805478 
7 0.876837 
8 0.928821 
9 0.968527 
10 0.988332 
11 0.981664 
12 0.952061 
13 0.900687 
14 0.823802 
15 0.725150 
16 0.608920 
17 0.469470 
18 0.310044 
19 0.151091 
20 0.003588 
21 -0.148179 
22 -0.306657 
23 -0.457985 
24 -0.594264 
25 -0.716778 
26 -0.820268 
27 -0.897146 
28 -0.949340 
29 -0.982110 
30 -0.994542 
31 -0.984590 
32 -0.952013 
33 -0.894168 
34 -0.810055 
35 -0.705706 
36 -0.585210 
37 -0.443637 
38 -0.284368 
39 -0.130225 
Zone T= "8"
I=40 
0 0.006416 
1 0.143464 
2 0.291512 
3 0.439182 
4 0.578193 
5 0.704394 
6 0.805361 
7 0.876459 
8 0.928011 
9 0.967622 
10 0.987719 
11 0.981365 
12 0.952041 
13 0.901025 
14 0.824416 
15 0.725921 
16 0.609837 
17 0.470236 
18 0.310221 
19 0.150910 
20 0.003656 
21 -0.147889 
22 -0.306583 
23 -0.458172 
24 -0.594573 
25 -0.717216 
26 -0.820677 
27 -0.897268 
28 -0.949222 
29 -0.981941 
30 -0.994378 
31 -0.984509 
32 -0.952074 
33 -0.894242 
34 -0.810048 
35 -0.705660 
36 -0.584998 
37 -0.443006 
38 -0.283419 
39 -0.129450 
Zone T= "9"
I=40 
0 0.006628 
1 0.143129 
2 0.290879 
3 0.438548 
4 0.577732 
5 0.704169 
6 0.805244 
7 0.876094 
8 0.927217 
9 0.966716 
10 0.987096 
11 0.981060 
12 0.952018 
13 0.901356 
14 0.825026 
15 0.726691 
16 0.610755 
17 0.471006 
18 0.310410 
19 0.150736 
20 0.003719 
21 -0.147605 
22 -0.306510 
23 -0.458360 
24 -0.594887 
25 -0.717653 
26 -0.821078 
27 -0.897381 
28 -0.949104 
29 -0.981776 
30 -0.994219 
31 -0.984432 
32 -0.952134 
33 -0.894312 
34 -0.810039 
35 -0.705613 
36 -0.584775 
37 -0.442369 
38 -0.282482 
39 -0.128696 
Zone T= "10"
I=40 
0 0.006835 
1 0.142806 
2 0.290256 
3 0.437914 
4 0.577267 
5 0.703935 
6 0.805124 
7 0.875744 
8 0.926439 
9 0.965809 
10 0.986462 
11 0.980749 
12 0.951991 
13 0.901681 
14 0.825631 
15 0.727460 
16 0.611673 
17 0.471781 
18 0.310609 
19 0.150567 
20 0.003778 
21 -0.147327 
22 -0.306438 
23 -0.458550 
24 -0.595205 
25 -0.718089 
26 -0.821469 
27 -0.897488 
28 -0.948986 
29 -0.981615 
30 -0.994065 
31 -0.984358 
32 -0.952194 
33 -0.894379 
34 -0.810028 
35 -0.705562 
36 -0.584542 
37 -0.441726 
38 -0.281559 
39 -0.127962 
Zone T= "11"
I=40 
0 0.007039 
1 0.142493 
2 0.289641 
3 0.437282 
4 0.576798 
5 0.703693 
6 0.805003 
7 0.875406 
8 0.925677 
9 0.964904 
10 0.985818 
11 0.980430 
12 0.951960 
13 0.902000 
14 0.826231 
15 0.728228 
16 0.612591 
17 0.472561 
18 0.310819 
19 0.150405 
20 0.003832 
21 -0.147056 
22 -0.306368 
23 -0.458742 
24 -0.595526 
25 -0.718524 
26 -0.821852 
27 -0.897587 
28 -0.948868 
29 -0.981459 
30 -0.993916 
31 -0.984288 
32 -0.952253 
33 -0.894442 
34 -0.810016 
35 -0.705509 
36 -0.584299 
37 -0.441077 
38 -0.280649 
39 -0.127247 
Zone T= "12"
I=40 
0 0.007240 
1 0.142190 
2 0.289035 
3 0.436650 
4 0.576325 
5 0.703444 
6 0.804879 
7 0.875081 
8 0.924931 
9 0.963999 
10 0.985164 
11 0.980105 
12 0.951925 
13 0.902312 
14 0.826825 
15 0.728994 
16 0.613509 
17 0.473346 
18 0.311040 
19 0.150250 
20 0.003882 
21 -0.146791 
22 -0.306299 
23 -0.458935 
24 -0.595852 
25 -0.718957 
26 -0.822226 
27 -0.897679 
28 -0.948751 
29 -0.981307 
30 -0.993772 
31 -0.984221 
32 -0.952312 
33 -0.894502 
34 -0.810002 
35 -0.705451 
36 -0.584047 
37 -0.440424 
38 -0.279752 
39 -0.126551 
Zone T= "13"
I=40 
0 0.007437 
1 0.141897 
2 0.288437 
3 0.436021 
4 0.575848 
5 0.703187 
6 0.804754 
7 0.874768 
8 0.924200 
9 0.963097 
10 0.984499 
11 0.979772 
12 0.951887 
13 0.902619 
14 0.827415 
15 0.729758 
16 0.614428 
17 0.474136 
18 0.311271 
19 0.150101 
20 0.003928 
21 -0.146532 
22 -0.306231 
23 -0.459130 
24 -0.596181 
25 -0.719389 
26 -0.822592 
27 -0.897765 
28 -0.948634 
29 -0.981159 
30 -0.993633 
31 -0.984157 
32 -0.952369 
33 -0.894560 
34 -0.809988 
35 -0.705390 
36 -0.583785 
37 -0.439767 
38 -0.278867 
39 -0.125872 
Zone T= "14"
I=40 
0 0.007631 
1 0.141614 
2 0.287848 
3 0.435392 
4 0.575369 
5 0.702922 
6 0.804625 
7 0.874467 
8 0.923486 
9 0.962197 
10 0.983825 
11 0.979431 
12 0.951844 
13 0.902919 
14 0.827999 
15 0.730521 
16 0.615347 
17 0.474931 
18 0.311513 
19 0.149958 
20 0.003971 
21 -0.146279 
22 -0.306165 
23 -0.459327 
24 -0.596514 
25 -0.719818 
26 -0.822949 
27 -0.897845 
28 -0.948519 
29 -0.981015 
30 -0.993498 
31 -0.984096 
32 -0.952425 
33 -0.894614 
34 -0.809972 
35 -0.705325 
36 -0.583513 
37 -0.439106 
38 -0.277995 
39 -0.125210 
Zone T= "0"
I=40 
0 0.007832 
1 0.141332 
2 0.287260 
3 0.434772 
4 0.574900 
5 0.702651 
6 0.804495 
7 0.874169 
8 0.922803 
9 0.961308 
10 0.983127 
11 0.979065 
12 0.951783 
13 0.903216 
14 0.828600 
15 0.731291 
16 0.616268 
17 0.475718 
18 0.311770 
19 0.149808 
20 0.003999 
21 -0.146000 
22 -0.306089 
23 -0.459523 
24 -0.596858 
25 -0.720228 
26 -0.823300 
27 -0.897923 
28 -0.948393 
29 -0.980886 
30 -0.993358 
31 -0.984043 
32 -0.952478 
33 -0.894682 
34 -0.809953 
35 -0.705265 
36 -0.583250 
37 -0.438449 
38 -0.277131 
39 -0.124565 
Zone T= "1"
I=40 
0 0.008024 
1 0.141063 
2 0.286679 
3 0.434152 
4 0.574427 
5 0.702377 
6 0.804355 
7 0.873887 
8 0.922133 
9 0.960423 
10 0.982423 
11 0.978689 
12 0.951719 
13 0.903507 
14 0.829192 
15 0.732064 
16 0.617183 
17 0.476518 
18 0.312032 
19 0.149666 
20 0.004030 
21 -0.145735 
22 -0.306008 
23 -0.459727 
24 -0.597196 
25 -0.720641 
26 -0.823639 
27 -0.897994 
28 -0.948276 
29 -0.980751 
30 -0.993233 
31 -0.983984 
32 -0.952537 
33 -0.894740 
34 -0.809937 
35 -0.705200 
36 -0.582976 
37 -0.437790 
38 -0.276281 
39 -0.123931 
Zone T= "2"
I=40 
0 0.008212 
1 0.140803 
2 0.286107 
3 0.433532 
4 0.573951 
5 0.702096 
6 0.804210 
7 0.873615 
8 0.921478 
9 0.959542 
10 0.981712 
11 0.978305 
12 0.951648 
13 0.903793 
14 0.829780 
15 0.732834 
16 0.618098 
17 0.477323 
18 0.312303 
19 0.149530 
20 0.004058 
21 -0.145477 
22 -0.305928 
23 -0.459933 
24 -0.597538 
25 -0.721053 
26 -0.823969 
27 -0.898060 
28 -0.948160 
29 -0.980618 
30 -0.993111 
31 -0.983929 
32 -0.952595 
33 -0.894796 
34 -0.809920 
35 -0.705128 
36 -0.582693 
37 -0.437129 
38 -0.275442 
39 -0.123311 
Zone T= "3"
I=40 
0 0.008395 
1 0.140551 
2 0.285543 
3 0.432913 
4 0.573471 
5 0.701808 
6 0.804062 
7 0.873353 
8 0.920840 
9 0.958665 
10 0.980994 
11 0.977912 
12 0.951572 
13 0.904072 
14 0.830363 
15 0.733603 
16 0.619014 
17 0.478133 
18 0.312583 
19 0.149401 
20 0.004083 
21 -0.145226 
22 -0.305851 
23 -0.460141 
24 -0.597883 
25 -0.721462 
26 -0.824291 
27 -0.898121 
28 -0.948046 
29 -0.980490 
30 -0.992994 
31 -0.983876 
32 -0.952651 
33 -0.894850 
34 -0.809903 
35 -0.705052 
36 -0.582400 
37 -0.436467 
38 -0.274615 
39 -0.122707 
Zone T= "4"
I=40 
0 0.008575 
1 0.140307 
2 0.284986 
3 0.432295 
4 0.572988 
5 0.701513 
6 0.803910 
7 0.873099 
8 0.920216 
9 0.957794 
10 0.980269 
11 0.977510 
12 0.951490 
13 0.904346 
14 0.830940 
15 0.734369 
16 0.619931 
17 0.478947 
18 0.312873 
19 0.149278 
20 0.004106 
21 -0.144980 
22 -0.305776 
23 -0.460350 
24 -0.598231 
25 -0.721868 
26 -0.824604 
27 -0.898177 
28 -0.947933 
29 -0.980364 
30 -0.992880 
31 -0.983827 
32 -0.952706 
33 -0.894901 
34 -0.809883 
35 -0.704970 
36 -0.582099 
37 -0.435804 
38 -0.273800 
39 -0.122117 
Zone T= "5"
I=40 
0 0.008752 
1 0.140070 
2 0.284438 
3 0.431679 
4 0.572501 
5 0.701212 
6 0.803754 
7 0.872853 
8 0.919608 
9 0.956930 
10 0.979537 
11 0.977100 
12 0.951402 
13 0.904615 
14 0.831511 
15 0.735133 
16 0.620849 
17 0.479767 
18 0.313172 
19 0.149163 
20 0.004126 
21 -0.144740 
22 -0.305703 
23 -0.460561 
24 -0.598582 
25 -0.722271 
26 -0.824909 
27 -0.898229 
28 -0.947822 
29 -0.980242 
30 -0.992770 
31 -0.983779 
32 -0.952759 
33 -0.894949 
34 -0.809863 
35 -0.704882 
36 -0.581790 
37 -0.435140 
38 -0.272996 
39 -0.121541 
Zone T= "6"
I=40 
0 0.008925 
1 0.139840 
2 0.283897 
3 0.431066 
4 0.572011 
5 0.700904 
6 0.803595 
7 0.872615 
8 0.919015 
9 0.956073 
10 0.978799 
11 0.976680 
12 0.951308 
13 0.904877 
14 0.832077 
15 0.735895 
16 0.621768 
17 0.480590 
18 0.313480 
19 0.149055 
20 0.004144 
21 -0.144507 
22 -0.305632 
23 -0.460774 
24 -0.598934 
25 -0.722671 
26 -0.825206 
27 -0.898276 
28 -0.947712 
29 -0.980123 
30 -0.992664 
31 -0.983735 
32 -0.952811 
33 -0.894996 
34 -0.809840 
35 -0.704789 
36 -0.581472 
37 -0.434474 
38 -0.272203 
39 -0.120978 
Zone T= "7"
I=40 
0 0.009095 
1 0.139617 
2 0.283363 
3 0.430455 
4 0.571518 
5 0.700589 
6 0.803432 
7 0.872384 
8 0.918437 
9 0.955223 
10 0.978055 
11 0.976250 
12 0.951208 
13 0.905134 
14 0.832638 
15 0.736654 
16 0.622687 
17 0.481418 
18 0.313798 
19 0.148953 
20 0.004159 
21 -0.144279 
22 -0.305563 
23 -0.460989 
24 -0.599290 
25 -0.723066 
26 -0.825495 
27 -0.898320 
28 -0.947604 
29 -0.980007 
30 -0.992562 
31 -0.983692 
32 -0.952863 
33 -0.895040 
34 -0.809816 
35 -0.704691 
36 -0.581146 
37 -0.433809 
38 -0.271422 
39 -0.120428 
Zone T= "8"
I=40 
0 0.009262 
1 0.139399 
2 0.282838 
3 0.429847 
4 0.571021 
5 0.700268 
6 0.803266 
7 0.872159 
8 0.917873 
9 0.954381 
10 0.977306 
11 0.975811 
12 0.951101 
13 0.905385 
14 0.833193 
15 0.737411 
16 0.623606 
17 0.482251 
18 0.314125 
19 0.148858 
20 0.004172 
21 -0.144056 
22 -0.305497 
23 -0.461206 
24 -0.599647 
25 -0.723459 
26 -0.825776 
27 -0.898361 
28 -0.947497 
29 -0.979895 
30 -0.992463 
31 -0.983651 
32 -0.952913 
33 -0.895083 
34 -0.809789 
35 -0.704585 
36 -0.580813 
37 -0.433143 
38 -0.270652 
39 -0.119891 
Zone T= "9"
I=40 
0 0.009427 
1 0.139188 
2 0.282320 
3 0.429242 
4 0.570521 
5 0.699940 
6 0.803095 
7 0.871941 
8 0.917324 
9 0.953548 
10 0.976552 
11 0.975362 
12 0.950988 
13 0.905630 
14 0.833742 
15 0.738165 
16 0.624526 
17 0.483089 
18 0.314462 
19 0.148770 
20 0.004182 
21 -0.143840 
22 -0.305433 
23 -0.461425 
24 -0.600007 
25 -0.723847 
26 -0.826050 
27 -0.898398 
28 -0.947392 
29 -0.979785 
30 -0.992368 
31 -0.983612 
32 -0.952962 
33 -0.895124 
34 -0.809760 
35 -0.704474 
36 -0.580472 
37 -0.432477 
38 -0.269893 
39 -0.119366 
Zone T= "10"
I=40 
0 0.009588 
1 0.138983 
2 0.281809 
3 0.428639 
4 0.570018 
5 0.699605 
6 0.802921 
7 0.871729 
8 0.916788 
9 0.952723 
10 0.975793 
11 0.974904 
12 0.950868 
13 0.905870 
14 0.834286 
15 0.738916 
16 0.625446 
17 0.483930 
18 0.314808 
19 0.148689 
20 0.004190 
21 -0.143628 
22 -0.305372 
23 -0.461647 
24 -0.600368 
25 -0.724231 
26 -0.826317 
27 -0.898432 
28 -0.947288 
29 -0.979679 
30 -0.992276 
31 -0.983576 
32 -0.953010 
33 -0.895164 
34 -0.809729 
35 -0.704356 
36 -0.580125 
37 -0.431811 
38 -0.269144 
39 -0.118853 
Zone T= "11"
I=40 
0 0.009746 
1 0.138784 
2 0.281306 
3 0.428039 
4 0.569513 
5 0.699265 
6 0.802742 
7 0.871522 
8 0.916266 
9 0.951907 
10 0.975030 
11 0.974436 
12 0.950740 
13 0.906103 
14 0.834825 
15 0.739664 
16 0.626366 
17 0.484777 
18 0.315164 
19 0.148614 
20 0.004197 
21 -0.143422 
22 -0.305313 
23 -0.461871 
24 -0.600732 
25 -0.724612 
26 -0.826576 
27 -0.898463 
28 -0.947187 
29 -0.979576 
30 -0.992187 
31 -0.983541 
32 -0.953056 
33 -0.895201 
34 -0.809695 
35 -0.704232 
36 -0.579770 
37 -0.431147 
38 -0.268406 
39 -0.118350 
Zone T= "12"
I=40 
0 0.009902 
1 0.138590 
2 0.280810 
3 0.427443 
4 0.569005 
5 0.698918 
6 0.802559 
7 0.871320 
8 0.915758 
9 0.951100 
10 0.974264 
11 0.973959 
12 0.950605 
13 0.906331 
14 0.835358 
15 0.740409 
16 0.627286 
17 0.485627 
18 0.315529 
19 0.148547 
20 0.004201 
21 -0.143221 
22 -0.305257 
23 -0.462097 
24 -0.601096 
25 -0.724988 
26 -0.826829 
27 -0.898491 
28 -0.947087 
29 -0.979475 
30 -0.992102 
31 -0.983507 
32 -0.953102 
33 -0.895237 
34 -0.809659 
35 -0.704101 
36 -0.579409 
37 -0.430484 
38 -0.267678 
39 -0.117859 
Zone T= "13"
I=40 
0 0.010054 
1 0.138401 
2 0.280321 
3 0.426849 
4 0.568495 
5 0.698566 
6 0.802372 
7 0.871123 
8 0.915263 
9 0.950303 
10 0.973495 
11 0.973471 
12 0.950462 
13 0.906553 
14 0.835886 
15 0.741152 
16 0.628205 
17 0.486482 
18 0.315903 
19 0.148486 
20 0.004203 
21 -0.143025 
22 -0.305203 
23 -0.462326 
24 -0.601463 
25 -0.725360 
26 -0.827074 
27 -0.898518 
28 -0.946989 
29 -0.979378 
30 -0.992020 
31 -0.983476 
32 -0.953148 
33 -0.895272 
34 -0.809620 
35 -0.703964 
36 -0.579041 
37 -0.429822 
38 -0.266961 
39 -0.117378 
Zone T= "14"
I=40 
0 0.010205 
1 0.138218 
2 0.279839 
3 0.426258 
4 0.567982 
5 0.698208 
6 0.802181 
7 0.870930 
8 0.914781 
9 0.949515 
10 0.972723 
11 0.972975 
12 0.950312 
13 0.906769 
14 0.836408 
15 0.741891 
16 0.629124 
17 0.487342 
18 0.316286 
19 0.148432 
20 0.004204 
21 -0.142835 
22 -0.305152 
23 -0.462557 
24 -0.601830 
25 -0.725727 
26 -0.827313 
27 -0.898542 
28 -0.946893 
29 -0.979283 
30 -0.991940 
31 -0.983446 
32 -0.953192 
33 -0.895305 
34 -0.809578 
35 -0.703821 
36 -0.578668 
37 -0.429162 
38 -0.266253 
39 -0.116907 
Zone T= "0"
I=40 
0 0.010351 
1 0.138045 
2 0.279353 
3 0.425669 
4 0.567483 
5 0.697831 
6 0.801986 
7 0.870738 
8 0.914306 
9 0.948716 
10 0.971959 
11 0.972482 
12 0.950159 
13 0.906979 
14 0.836917 
15 0.742621 
16 0.630024 
17 0.488196 
18 0.316706 
19 0.148402 
20 0.004210 
21 -0.142646 
22 -0.305098 
23 -0.462801 
24 -0.602198 
25 -0.726079 
26 -0.827546 
27 -0.898575 
28 -0.946815 
29 -0.979195 
30 -0.991870 
31 -0.983393 
32 -0.953209 
33 -0.895324 
34 -0.809542 
35 -0.703673 
36 -0.578285 
37 -0.428534 
38 -0.265545 
39 -0.116448 
Zone T= "1"
I=40 
0 0.010497 
1 0.137871 
2 0.278879 
3 0.425085 
4 0.566975 
5 0.697458 
6 0.801779 
7 0.870555 
8 0.913840 
9 0.947933 
10 0.971187 
11 0.971983 
12 0.950001 
13 0.907180 
14 0.837425 
15 0.743346 
16 0.630923 
17 0.489056 
18 0.317131 
19 0.148382 
20 0.004210 
21 -0.142457 
22 -0.305050 
23 -0.463046 
24 -0.602567 
25 -0.726426 
26 -0.827772 
27 -0.898608 
28 -0.946735 
29 -0.979114 
30 -0.991798 
31 -0.983346 
32 -0.953222 
33 -0.895346 
34 -0.809500 
35 -0.703515 
36 -0.577907 
37 -0.427894 
38 -0.264860 
39 -0.115994 
Zone T= "2"
I=40 
0 0.010641 
1 0.137699 
2 0.278412 
3 0.424504 
4 0.566463 
5 0.697081 
6 0.801568 
7 0.870373 
8 0.913388 
9 0.947161 
10 0.970411 
11 0.971476 
12 0.949835 
13 0.907374 
14 0.837929 
15 0.744068 
16 0.631820 
17 0.489922 
18 0.317563 
19 0.148368 
20 0.004211 
21 -0.142275 
22 -0.305006 
23 -0.463293 
24 -0.602936 
25 -0.726770 
26 -0.827993 
27 -0.898640 
28 -0.946656 
29 -0.979036 
30 -0.991727 
31 -0.983299 
32 -0.953236 
33 -0.895367 
34 -0.809453 
35 -0.703352 
36 -0.577524 
37 -0.427255 
38 -0.264185 
39 -0.115547 
Zone T= "3"
I=40 
0 0.010783 
1 0.137531 
2 0.277953 
3 0.423927 
4 0.565948 
5 0.696700 
6 0.801353 
7 0.870192 
8 0.912948 
9 0.946401 
10 0.969632 
11 0.970960 
12 0.949662 
13 0.907562 
14 0.838429 
15 0.744786 
16 0.632717 
17 0.490791 
18 0.318005 
19 0.148360 
20 0.004211 
21 -0.142097 
22 -0.304964 
23 -0.463542 
24 -0.603306 
25 -0.727109 
26 -0.828209 
27 -0.898670 
28 -0.946579 
29 -0.978961 
30 -0.991659 
31 -0.983253 
32 -0.953251 
33 -0.895388 
34 -0.809403 
35 -0.703183 
36 -0.577135 
37 -0.426619 
38 -0.263521 
39 -0.115110 
Zone T= "4"
I=40 
0 0.010922 
1 0.137367 
2 0.277500 
3 0.423353 
4 0.565431 
5 0.696315 
6 0.801133 
7 0.870013 
8 0.912521 
9 0.945651 
10 0.968852 
11 0.970435 
12 0.949482 
13 0.907745 
14 0.838924 
15 0.745501 
16 0.633613 
17 0.491665 
18 0.318454 
19 0.148359 
20 0.004210 
21 -0.141924 
22 -0.304926 
23 -0.463792 
24 -0.603676 
25 -0.727444 
26 -0.828419 
27 -0.898699 
28 -0.946504 
29 -0.978888 
30 -0.991592 
31 -0.983209 
32 -0.953266 
33 -0.895407 
34 -0.809349 
35 -0.703008 
36 -0.576742 
37 -0.425984 
38 -0.262865 
39 -0.114681 
Zone T= "5"
I=40 
0 0.011058 
1 0.137207 
2 0.277054 
3 0.422782 
4 0.564912 
5 0.695926 
6 0.800910 
7 0.869836 
8 0.912106 
9 0.944913 
10 0.968072 
11 0.969900 
12 0.949293 
13 0.907923 
14 0.839414 
15 0.746213 
16 0.634509 
17 0.492543 
18 0.318911 
19 0.148364 
20 0.004209 
21 -0.141755 
22 -0.304892 
23 -0.464045 
24 -0.604046 
25 -0.727774 
26 -0.828625 
27 -0.898726 
28 -0.946431 
29 -0.978817 
30 -0.991528 
31 -0.983166 
32 -0.953282 
33 -0.895425 
34 -0.809291 
35 -0.702827 
36 -0.576344 
37 -0.425352 
38 -0.262218 
39 -0.114260 
Zone T= "6"
I=40 
0 0.011192 
1 0.137051 
2 0.276615 
3 0.422214 
4 0.564392 
5 0.695532 
6 0.800682 
7 0.869661 
8 0.911702 
9 0.944187 
10 0.967290 
11 0.969357 
12 0.949096 
13 0.908095 
14 0.839900 
15 0.746921 
16 0.635404 
17 0.493424 
18 0.319377 
19 0.148376 
20 0.004207 
21 -0.141592 
22 -0.304861 
23 -0.464300 
24 -0.604416 
25 -0.728101 
26 -0.828825 
27 -0.898752 
28 -0.946359 
29 -0.978749 
30 -0.991465 
31 -0.983124 
32 -0.953298 
33 -0.895442 
34 -0.809229 
35 -0.702639 
36 -0.575942 
37 -0.424723 
38 -0.261580 
39 -0.113848 
Zone T= "7"
I=40 
0 0.011324 
1 0.136899 
2 0.276182 
3 0.421650 
4 0.563871 
5 0.695135 
6 0.800450 
7 0.869487 
8 0.911308 
9 0.943472 
10 0.966510 
11 0.968805 
12 0.948891 
13 0.908261 
14 0.840381 
15 0.747626 
16 0.636298 
17 0.494309 
18 0.319851 
19 0.148395 
20 0.004205 
21 -0.141433 
22 -0.304833 
23 -0.464556 
24 -0.604785 
25 -0.728424 
26 -0.829020 
27 -0.898777 
28 -0.946290 
29 -0.978683 
30 -0.991405 
31 -0.983084 
32 -0.953314 
33 -0.895458 
34 -0.809164 
35 -0.702446 
36 -0.575536 
37 -0.424097 
38 -0.260951 
39 -0.113443 
Zone T= "8"
I=40 
0 0.011452 
1 0.136750 
2 0.275755 
3 0.421089 
4 0.563348 
5 0.694734 
6 0.800213 
7 0.869314 
8 0.910925 
9 0.942768 
10 0.965730 
11 0.968245 
12 0.948677 
13 0.908421 
14 0.840857 
15 0.748327 
16 0.637191 
17 0.495198 
18 0.320332 
19 0.148420 
20 0.004202 
21 -0.141279 
22 -0.304809 
23 -0.464815 
24 -0.605155 
25 -0.728742 
26 -0.829210 
27 -0.898802 
28 -0.946222 
29 -0.978618 
30 -0.991346 
31 -0.983045 
32 -0.953330 
33 -0.895472 
34 -0.809095 
35 -0.702246 
36 -0.575127 
37 -0.423475 
38 -0.260329 
39 -0.113046 
Zone T= "9"
I=40 
0 0.011579 
1 0.136605 
2 0.275334 
3 0.420531 
4 0.562825 
5 0.694329 
6 0.799972 
7 0.869142 
8 0.910553 
9 0.942076 
10 0.964951 
11 0.967676 
12 0.948454 
13 0.908576 
14 0.841329 
15 0.749025 
16 0.638084 
17 0.496090 
18 0.320822 
19 0.148452 
20 0.004198 
21 -0.141129 
22 -0.304788 
23 -0.465075 
24 -0.605524 
25 -0.729056 
26 -0.829396 
27 -0.898825 
28 -0.946156 
29 -0.978556 
30 -0.991289 