VARIABLES = "x", "y" 
Zone T= "0"
I=40 
0 0.000522 
1 0.154932 
2 0.308944 
3 0.453799 
4 0.588177 
5 0.709226 
6 0.810486 
7 0.890535 
8 0.949640 
9 0.986187 
10 0.998647 
11 0.986725 
12 0.950731 
13 0.891212 
14 0.809521 
15 0.707783 
16 0.588552 
17 0.454829 
18 0.309782 
19 0.154802 
20 0.000085 
21 -0.156188 
22 -0.308744 
23 -0.454312 
24 -0.588040 
25 -0.707706 
26 -0.809850 
27 -0.891637 
28 -0.950976 
29 -0.987009 
30 -0.999252 
31 -0.987075 
32 -0.950318 
33 -0.890332 
34 -0.809085 
35 -0.708087 
36 -0.588591 
37 -0.454161 
38 -0.308375 
39 -0.155402 
Zone T= "1"
I=40 
0 0.000623 
1 0.154049 
2 0.308403 
3 0.453734 
4 0.588717 
5 0.711031 
6 0.812115 
7 0.890173 
8 0.948130 
9 0.984702 
10 0.997294 
11 0.985749 
12 0.950342 
13 0.891414 
14 0.810115 
15 0.708324 
16 0.589318 
17 0.455968 
18 0.309959 
19 0.153865 
20 -0.000308 
21 -0.155731 
22 -0.308532 
23 -0.454592 
24 -0.588387 
25 -0.708225 
26 -0.810702 
27 -0.892279 
28 -0.950823 
29 -0.986313 
30 -0.998577 
31 -0.986450 
32 -0.949527 
33 -0.889687 
34 -0.809242 
35 -0.708969 
36 -0.589404 
37 -0.454369 
38 -0.307669 
39 -0.154286 
Zone T= "2"
I=40 
0 0.000700 
1 0.153264 
2 0.307826 
3 0.453628 
4 0.589307 
5 0.712752 
6 0.813719 
7 0.889962 
8 0.946599 
9 0.983139 
10 0.996006 
11 0.984726 
12 0.949886 
13 0.891676 
14 0.810677 
15 0.708828 
16 0.590157 
17 0.457055 
18 0.310117 
19 0.153013 
20 -0.000716 
21 -0.155308 
22 -0.308290 
23 -0.454877 
24 -0.588759 
25 -0.708728 
26 -0.811546 
27 -0.892917 
28 -0.950619 
29 -0.985606 
30 -0.997959 
31 -0.985814 
32 -0.948689 
33 -0.889097 
34 -0.809430 
35 -0.709802 
36 -0.590231 
37 -0.454557 
38 -0.306906 
39 -0.153259 
Zone T= "3"
I=40 
0 0.000764 
1 0.152542 
2 0.307238 
3 0.453496 
4 0.589906 
5 0.714413 
6 0.815301 
7 0.889856 
8 0.945086 
9 0.981524 
10 0.994732 
11 0.983681 
12 0.949389 
13 0.891950 
14 0.811228 
15 0.709323 
16 0.591017 
17 0.458121 
18 0.310272 
19 0.152212 
20 -0.001122 
21 -0.154909 
22 -0.308039 
23 -0.455164 
24 -0.589143 
25 -0.709227 
26 -0.812390 
27 -0.893530 
28 -0.950371 
29 -0.984904 
30 -0.997376 
31 -0.985165 
32 -0.947831 
33 -0.888545 
34 -0.809643 
35 -0.710612 
36 -0.591047 
37 -0.454718 
38 -0.306126 
39 -0.152289 
Zone T= "4"
I=40 
0 0.000820 
1 0.151863 
2 0.306651 
3 0.453347 
4 0.590498 
5 0.716024 
6 0.816868 
7 0.889829 
8 0.943605 
9 0.979873 
10 0.993446 
11 0.982626 
12 0.948861 
13 0.892214 
14 0.811778 
15 0.709820 
16 0.591880 
17 0.459173 
18 0.310433 
19 0.151445 
20 -0.001519 
21 -0.154522 
22 -0.307791 
23 -0.455451 
24 -0.589527 
25 -0.709731 
26 -0.813233 
27 -0.894109 
28 -0.950087 
29 -0.984217 
30 -0.996816 
31 -0.984501 
32 -0.946963 
33 -0.888024 
34 -0.809878 
35 -0.711410 
36 -0.591843 
37 -0.454848 
38 -0.305343 
39 -0.151366 
Zone T= "5"
I=40 
0 0.000873 
1 0.151219 
2 0.306069 
3 0.453184 
4 0.591073 
5 0.717590 
6 0.818422 
7 0.889868 
8 0.942162 
9 0.978192 
10 0.992138 
11 0.981564 
12 0.948310 
13 0.892459 
14 0.812330 
15 0.710323 
16 0.592738 
17 0.460216 
18 0.310605 
19 0.150705 
20 -0.001905 
21 -0.154143 
22 -0.307550 
23 -0.455738 
24 -0.589909 
25 -0.710244 
26 -0.814076 
27 -0.894648 
28 -0.949772 
29 -0.983546 
30 -0.996273 
31 -0.983820 
32 -0.946094 
33 -0.887530 
34 -0.810131 
35 -0.712200 
36 -0.592612 
37 -0.454948 
38 -0.304565 
39 -0.150483 
Zone T= "6"
I=40 
0 0.000923 
1 0.150605 
2 0.305494 
3 0.453011 
4 0.591629 
5 0.719112 
6 0.819966 
7 0.889966 
8 0.940764 
9 0.976489 
10 0.990802 
11 0.980494 
12 0.947738 
13 0.892681 
14 0.812883 
15 0.710836 
16 0.593589 
17 0.461249 
18 0.310788 
19 0.149988 
20 -0.002279 
21 -0.153770 
22 -0.307320 
23 -0.456024 
24 -0.590288 
25 -0.710768 
26 -0.814915 
27 -0.895147 
28 -0.949429 
29 -0.982894 
30 -0.995742 
31 -0.983124 
32 -0.945225 
33 -0.887063 
34 -0.810403 
35 -0.712985 
36 -0.593353 
37 -0.455017 
38 -0.303795 
39 -0.149636 
Zone T= "7"
I=40 
0 0.000971 
1 0.150018 
2 0.304928 
3 0.452827 
4 0.592164 
5 0.720593 
6 0.821499 
7 0.890118 
8 0.939411 
9 0.974766 
10 0.989435 
11 0.979416 
12 0.947148 
13 0.892878 
14 0.813437 
15 0.711357 
16 0.594432 
17 0.462275 
18 0.310983 
19 0.149293 
20 -0.002641 
21 -0.153402 
22 -0.307100 
23 -0.456308 
24 -0.590663 
25 -0.711304 
26 -0.815749 
27 -0.895605 
28 -0.949063 
29 -0.982262 
30 -0.995220 
31 -0.982413 
32 -0.944359 
33 -0.886623 
34 -0.810691 
35 -0.713763 
36 -0.594066 
37 -0.455058 
38 -0.303035 
39 -0.148824 
Zone T= "8"
I=40 
0 0.001019 
1 0.149456 
2 0.304370 
3 0.452635 
4 0.592677 
5 0.722034 
6 0.823021 
7 0.890323 
8 0.938106 
9 0.973029 
10 0.988037 
11 0.978328 
12 0.946540 
13 0.893052 
14 0.813992 
15 0.711889 
16 0.595268 
17 0.463292 
18 0.311191 
19 0.148619 
20 -0.002991 
21 -0.153038 
22 -0.306890 
23 -0.456590 
24 -0.591036 
25 -0.711852 
26 -0.816576 
27 -0.896021 
28 -0.948676 
29 -0.981648 
30 -0.994706 
31 -0.981686 
32 -0.943499 
33 -0.886209 
34 -0.810996 
35 -0.714535 
36 -0.594751 
37 -0.455072 
38 -0.302284 
39 -0.148044 
Zone T= "9"
I=40 
0 0.001066 
1 0.148920 
2 0.303821 
3 0.452434 
4 0.593169 
5 0.723435 
6 0.824530 
7 0.890577 
8 0.936850 
9 0.971280 
10 0.986608 
11 0.977227 
12 0.945915 
13 0.893201 
14 0.814545 
15 0.712430 
16 0.596097 
17 0.464303 
18 0.311410 
19 0.147965 
20 -0.003328 
21 -0.152679 
22 -0.306691 
23 -0.456869 
24 -0.591406 
25 -0.712411 
26 -0.817395 
27 -0.896397 
28 -0.948271 
29 -0.981053 
30 -0.994196 
31 -0.980944 
32 -0.942645 
33 -0.885822 
34 -0.811316 
35 -0.715298 
36 -0.595408 
37 -0.455060 
38 -0.301544 
39 -0.147295 
Zone T= "10"
I=40 
0 0.001112 
1 0.148406 
2 0.303281 
3 0.452225 
4 0.593640 
5 0.724798 
6 0.826026 
7 0.890878 
8 0.935643 
9 0.969524 
10 0.985148 
11 0.976112 
12 0.945272 
13 0.893326 
14 0.815097 
15 0.712980 
16 0.596920 
17 0.465305 
18 0.311639 
19 0.147333 
20 -0.003654 
21 -0.152326 
22 -0.306501 
23 -0.457145 
24 -0.591776 
25 -0.712982 
26 -0.818202 
27 -0.896734 
28 -0.947850 
29 -0.980476 
30 -0.993689 
31 -0.980188 
32 -0.941800 
33 -0.885462 
34 -0.811650 
35 -0.716053 
36 -0.596037 
37 -0.455023 
38 -0.300814 
39 -0.146575 
Zone T= "11"
I=40 
0 0.001158 
1 0.147916 
2 0.302750 
3 0.452009 
4 0.594090 
5 0.726122 
6 0.827509 
7 0.891225 
8 0.934486 
9 0.967763 
10 0.983657 
11 0.974981 
12 0.944613 
13 0.893430 
14 0.815645 
15 0.713539 
16 0.597739 
17 0.466301 
18 0.311879 
19 0.146721 
20 -0.003967 
21 -0.151978 
22 -0.306320 
23 -0.457419 
24 -0.592147 
25 -0.713564 
26 -0.818997 
27 -0.897032 
28 -0.947417 
29 -0.979916 
30 -0.993182 
31 -0.979418 
32 -0.940965 
33 -0.885130 
34 -0.811997 
35 -0.716799 
36 -0.596638 
37 -0.454964 
38 -0.300095 
39 -0.145884 
Zone T= "12"
I=40 
0 0.001204 
1 0.147447 
2 0.302228 
3 0.451786 
4 0.594519 
5 0.727408 
6 0.828978 
7 0.891615 
8 0.933381 
9 0.966000 
10 0.982137 
11 0.973833 
12 0.943937 
13 0.893511 
14 0.816189 
15 0.714105 
16 0.598554 
17 0.467290 
18 0.312129 
19 0.146130 
20 -0.004269 
21 -0.151636 
22 -0.306148 
23 -0.457690 
24 -0.592519 
25 -0.714155 
26 -0.819776 
27 -0.897291 
28 -0.946973 
29 -0.979374 
30 -0.992675 
31 -0.978635 
32 -0.940142 
33 -0.884825 
34 -0.812357 
35 -0.717534 
36 -0.597213 
37 -0.454882 
38 -0.299386 
39 -0.145220 
Zone T= "13"
I=40 
0 0.001250 
1 0.147000 
2 0.301715 
3 0.451556 
4 0.594928 
5 0.728658 
6 0.830432 
7 0.892047 
8 0.932326 
9 0.964238 
10 0.980587 
11 0.972664 
12 0.943243 
13 0.893571 
14 0.816727 
15 0.714678 
16 0.599366 
17 0.468273 
18 0.312387 
19 0.145560 
20 -0.004559 
21 -0.151300 
22 -0.305983 
23 -0.457957 
24 -0.592893 
25 -0.714756 
26 -0.820538 
27 -0.897511 
28 -0.946520 
29 -0.978850 
30 -0.992165 
31 -0.977839 
32 -0.939332 
33 -0.884548 
34 -0.812728 
35 -0.718259 
36 -0.597762 
37 -0.454780 
38 -0.298689 
39 -0.144582 
Zone T= "14"
I=40 
0 0.001295 
1 0.146573 
2 0.301211 
3 0.451321 
4 0.595318 
5 0.729870 
6 0.831871 
7 0.892518 
8 0.931323 
9 0.962481 
10 0.979009 
11 0.971475 
12 0.942531 
13 0.893610 
14 0.817260 
15 0.715258 
16 0.600177 
17 0.469249 
18 0.312654 
19 0.145011 
20 -0.004837 
21 -0.150971 
22 -0.305826 
23 -0.458222 
24 -0.593271 
25 -0.715365 
26 -0.821279 
27 -0.897693 
28 -0.946060 
29 -0.978342 
30 -0.991652 
31 -0.977032 
32 -0.938537 
33 -0.884298 
34 -0.813110 
35 -0.718971 
36 -0.598285 
37 -0.454659 
38 -0.298002 
39 -0.143969 
Zone T= "0"
I=40 
0 0.001337 
1 0.146165 
2 0.300713 
3 0.451081 
4 0.595681 
5 0.731043 
6 0.833297 
7 0.893028 
8 0.930370 
9 0.960733 
10 0.977398 
11 0.970263 
12 0.941805 
13 0.893630 
14 0.817784 
15 0.715844 
16 0.600981 
17 0.470218 
18 0.312923 
19 0.144480 
20 -0.005101 
21 -0.150650 
22 -0.305674 
23 -0.458479 
24 -0.593656 
25 -0.715980 
26 -0.821993 
27 -0.897844 
28 -0.945595 
29 -0.977846 
30 -0.991137 
31 -0.976215 
32 -0.937763 
33 -0.884075 
34 -0.813504 
35 -0.719673 
36 -0.598785 
37 -0.454521 
38 -0.297322 
39 -0.143380 
Zone T= "1"
I=40 
0 0.001381 
1 0.145774 
2 0.300228 
3 0.450834 
4 0.596026 
5 0.732180 
6 0.834706 
7 0.893574 
8 0.929470 
9 0.958993 
10 0.975765 
11 0.969026 
12 0.941059 
13 0.893632 
14 0.818302 
15 0.716433 
16 0.601788 
17 0.471179 
18 0.313200 
19 0.143971 
20 -0.005355 
21 -0.150334 
22 -0.305527 
23 -0.458735 
24 -0.594044 
25 -0.716600 
26 -0.822685 
27 -0.897957 
28 -0.945131 
29 -0.977364 
30 -0.990613 
31 -0.975392 
32 -0.937004 
33 -0.883883 
34 -0.813906 
35 -0.720363 
36 -0.599261 
37 -0.454364 
38 -0.296655 
39 -0.142813 
Zone T= "2"
I=40 
0 0.001425 
1 0.145401 
2 0.299751 
3 0.450582 
4 0.596353 
5 0.733283 
6 0.836098 
7 0.894155 
8 0.928622 
9 0.957265 
10 0.974109 
11 0.967763 
12 0.940294 
13 0.893615 
14 0.818811 
15 0.717027 
16 0.602595 
17 0.472134 
18 0.313484 
19 0.143483 
20 -0.005599 
21 -0.150025 
22 -0.305386 
23 -0.458989 
24 -0.594437 
25 -0.717224 
26 -0.823353 
27 -0.898036 
28 -0.944668 
29 -0.976895 
30 -0.990081 
31 -0.974561 
32 -0.936264 
33 -0.883717 
34 -0.814317 
35 -0.721041 
36 -0.599712 
37 -0.454191 
38 -0.295999 
39 -0.142268 
Zone T= "3"
I=40 
0 0.001470 
1 0.145046 
2 0.299283 
3 0.450326 
4 0.596661 
5 0.734352 
6 0.837473 
7 0.894769 
8 0.927824 
9 0.955552 
10 0.972430 
11 0.966475 
12 0.939509 
13 0.893578 
14 0.819313 
15 0.717626 
16 0.603404 
17 0.473084 
18 0.313776 
19 0.143015 
20 -0.005832 
21 -0.149723 
22 -0.305249 
23 -0.459241 
24 -0.594837 
25 -0.717852 
26 -0.823996 
27 -0.898084 
28 -0.944205 
29 -0.976439 
30 -0.989539 
31 -0.973722 
32 -0.935545 
33 -0.883579 
34 -0.814736 
35 -0.721706 
36 -0.600139 
37 -0.454003 
38 -0.295353 
39 -0.141744 
Zone T= "4"
I=40 
0 0.001515 
1 0.144707 
2 0.298823 
3 0.450066 
4 0.596951 
5 0.735387 
6 0.838830 
7 0.895414 
8 0.927078 
9 0.953856 
10 0.970730 
11 0.965161 
12 0.938703 
13 0.893523 
14 0.819805 
15 0.718228 
16 0.604216 
17 0.474029 
18 0.314078 
19 0.142568 
20 -0.006055 
21 -0.149428 
22 -0.305117 
23 -0.459491 
24 -0.595244 
25 -0.718482 
26 -0.824613 
27 -0.898104 
28 -0.943746 
29 -0.975994 
30 -0.988987 
31 -0.972878 
32 -0.934848 
33 -0.883466 
34 -0.815163 
35 -0.722359 
36 -0.600542 
37 -0.453800 
38 -0.294719 
39 -0.141240 
Zone T= "5"
I=40 
0 0.001561 
1 0.144384 
2 0.298372 
3 0.449802 
4 0.597224 
5 0.736389 
6 0.840170 
7 0.896088 
8 0.926381 
9 0.952179 
10 0.969012 
11 0.963819 
12 0.937875 
13 0.893449 
14 0.820288 
15 0.718834 
16 0.605029 
17 0.474972 
18 0.314389 
19 0.142142 
20 -0.006268 
21 -0.149140 
22 -0.304989 
23 -0.459739 
24 -0.595658 
25 -0.719113 
26 -0.825203 
27 -0.898097 
28 -0.943291 
29 -0.975557 
30 -0.988425 
31 -0.972030 
32 -0.934173 
33 -0.883380 
34 -0.815596 
35 -0.722999 
36 -0.600923 
37 -0.453583 
38 -0.294095 
39 -0.140755 
Zone T= "6"
I=40 
0 0.001608 
1 0.144076 
2 0.297930 
3 0.449535 
4 0.597479 
5 0.737358 
6 0.841492 
7 0.896789 
8 0.925734 
9 0.950524 
10 0.967276 
11 0.962449 
12 0.937026 
13 0.893356 
14 0.820761 
15 0.719444 
16 0.605846 
17 0.475911 
18 0.314708 
19 0.141736 
20 -0.006472 
21 -0.148859 
22 -0.304864 
23 -0.459986 
24 -0.596080 
25 -0.719744 
26 -0.825766 
27 -0.898064 
28 -0.942840 
29 -0.975128 
30 -0.987852 
31 -0.971180 
32 -0.933521 
33 -0.883318 
34 -0.816035 
35 -0.723626 
36 -0.601281 
37 -0.453353 
38 -0.293481 
39 -0.140288 
Zone T= "7"
I=40 
0 0.001656 
1 0.143783 
2 0.297496 
3 0.449265 
4 0.597717 
5 0.738295 
6 0.842796 
7 0.897516 
8 0.925136 
9 0.948892 
10 0.965524 
11 0.961051 
12 0.936153 
13 0.893244 
14 0.821225 
15 0.720057 
16 0.606665 
17 0.476849 
18 0.315035 
19 0.141351 
20 -0.006667 
21 -0.148585 
22 -0.304742 
23 -0.460232 
24 -0.596509 
25 -0.720374 
26 -0.826302 
27 -0.898009 
28 -0.942394 
29 -0.974706 
30 -0.987268 
31 -0.970329 
32 -0.932893 
33 -0.883282 
34 -0.816479 
35 -0.724240 
36 -0.601618 
37 -0.453112 
38 -0.292878 
39 -0.139838 
Zone T= "8"
I=40 
0 0.001705 
1 0.143503 
2 0.297070 
3 0.448992 
4 0.597939 
5 0.739201 
6 0.844082 
7 0.898268 
8 0.924588 
9 0.947285 
10 0.963758 
11 0.959626 
12 0.935257 
13 0.893113 
14 0.821678 
15 0.720672 
16 0.607487 
17 0.477784 
18 0.315371 
19 0.140986 
20 -0.006852 
21 -0.148317 
22 -0.304623 
23 -0.460477 
24 -0.596947 
25 -0.721001 
26 -0.826810 
27 -0.897933 
28 -0.941955 
29 -0.974288 
30 -0.986673 
31 -0.969478 
32 -0.932289 
33 -0.883269 
34 -0.816927 
35 -0.724840 
36 -0.601934 
37 -0.452859 
38 -0.292286 
39 -0.139405 
Zone T= "9"
I=40 
0 0.001756 
1 0.143237 
2 0.296653 
3 0.448718 
4 0.598143 
5 0.740075 
6 0.845350 
7 0.899044 
8 0.924089 
9 0.945705 
10 0.961981 
11 0.958175 
12 0.934337 
13 0.892962 
14 0.822120 
15 0.721289 
16 0.608313 
17 0.478718 
18 0.315714 
19 0.140641 
20 -0.007028 
21 -0.148056 
22 -0.304508 
23 -0.460723 
24 -0.597392 
25 -0.721624 
26 -0.827291 
27 -0.897837 
28 -0.941521 
29 -0.973874 
30 -0.986067 
31 -0.968630 
32 -0.931711 
33 -0.883279 
34 -0.817379 
35 -0.725427 
36 -0.602228 
37 -0.452596 
38 -0.291705 
39 -0.138986 
Zone T= "10"
I=40 
0 0.001807 
1 0.142983 
2 0.296244 
3 0.448442 
4 0.598331 
5 0.740919 
6 0.846600 
7 0.899843 
8 0.923638 
9 0.944153 
10 0.960193 
11 0.956698 
12 0.933394 
13 0.892792 
14 0.822550 
15 0.721908 
16 0.609141 
17 0.479649 
18 0.316064 
19 0.140315 
20 -0.007195 
21 -0.147802 
22 -0.304394 
23 -0.460970 
24 -0.597845 
25 -0.722243 
26 -0.827746 
27 -0.897724 
28 -0.941095 
29 -0.973462 
30 -0.985449 
31 -0.967785 
32 -0.931158 
33 -0.883312 
34 -0.817833 
35 -0.726000 
36 -0.602503 
37 -0.452323 
38 -0.291134 
39 -0.138583 
Zone T= "11"
I=40 
0 0.001860 
1 0.142741 
2 0.295843 
3 0.448164 
4 0.598504 
5 0.741734 
6 0.847832 
7 0.900663 
8 0.923236 
9 0.942630 
10 0.958398 
11 0.955195 
12 0.932426 
13 0.892600 
14 0.822969 
15 0.722528 
16 0.609972 
17 0.480578 
18 0.316421 
19 0.140010 
20 -0.007354 
21 -0.147553 
22 -0.304284 
23 -0.461217 
24 -0.598306 
25 -0.722856 
26 -0.828173 
27 -0.897595 
28 -0.940675 
29 -0.973051 
30 -0.984820 
31 -0.966944 
32 -0.930630 
33 -0.883367 
34 -0.818291 
35 -0.726559 
36 -0.602758 
37 -0.452041 
38 -0.290573 
39 -0.138193 
Zone T= "12"
I=40 
0 0.001914 
1 0.142510 
2 0.295450 
3 0.447885 
4 0.598660 
5 0.742518 
6 0.849045 
7 0.901503 
8 0.922880 
9 0.941139 
10 0.956596 
11 0.953667 
12 0.931433 
13 0.892389 
14 0.823376 
15 0.723149 
16 0.610807 
17 0.481505 
18 0.316787 
19 0.139723 
20 -0.007504 
21 -0.147310 
22 -0.304176 
23 -0.461466 
24 -0.598774 
25 -0.723463 
26 -0.828575 
27 -0.897452 
28 -0.940263 
29 -0.972639 
30 -0.984180 
31 -0.966110 
32 -0.930128 
33 -0.883442 
34 -0.818751 
35 -0.727105 
36 -0.602994 
37 -0.451752 
38 -0.290023 
39 -0.137816 
Zone T= "13"
I=40 
0 0.001969 
1 0.142289 
2 0.295064 
3 0.447604 
4 0.598802 
5 0.743273 
6 0.850241 
7 0.902364 
8 0.922570 
9 0.939681 
10 0.954795 
11 0.952113 
12 0.930415 
13 0.892156 
14 0.823770 
15 0.723771 
16 0.611644 
17 0.482431 
18 0.317159 
19 0.139454 
20 -0.007646 
21 -0.147073 
22 -0.304070 
23 -0.461717 
24 -0.599249 
25 -0.724062 
26 -0.828950 
27 -0.897296 
28 -0.939857 
29 -0.972227 
30 -0.983530 
31 -0.965284 
32 -0.929652 
33 -0.883537 
34 -0.819212 
35 -0.727638 
36 -0.603211 
37 -0.451455 
38 -0.289483 
39 -0.137452 
Zone T= "14"
I=40 
0 0.002026 
1 0.142079 
2 0.294687 
3 0.447323 
4 0.598927 
5 0.744000 
6 0.851422 
7 0.903245 
8 0.922305 
9 0.938258 
10 0.952993 
11 0.950535 
12 0.929371 
13 0.891901 
14 0.824151 
15 0.724393 
16 0.612485 
17 0.483355 
18 0.317539 
19 0.139204 
20 -0.007780 
21 -0.146841 
22 -0.303967 
23 -0.461971 
24 -0.599732 
25 -0.724653 
26 -0.829300 
27 -0.897128 
28 -0.939458 
29 -0.971812 
30 -0.982869 
31 -0.964466 
32 -0.929202 
33 -0.883651 
34 -0.819675 
35 -0.728158 
36 -0.603411 
37 -0.451151 
38 -0.288954 
39 -0.137100 
Zone T= "0"
I=40 
0 0.002089 
1 0.141877 
2 0.294322 
3 0.447035 
4 0.599033 
5 0.744699 
6 0.852587 
7 0.904146 
8 0.922082 
9 0.936874 
10 0.951199 
11 0.948938 
12 0.928301 
13 0.891620 
14 0.824521 
15 0.725010 
16 0.613330 
17 0.484283 
18 0.317932 
19 0.138974 
20 -0.007910 
21 -0.146611 
22 -0.303864 
23 -0.462232 
24 -0.600217 
25 -0.725229 
26 -0.829623 
27 -0.896950 
28 -0.939062 
29 -0.971391 
30 -0.982200 
31 -0.963659 
32 -0.928775 
33 -0.883784 
34 -0.820135 
35 -0.728660 
36 -0.603592 
37 -0.450845 
38 -0.288433 
39 -0.136760 
Zone T= "1"
I=40 
0 0.002150 
1 0.141687 
2 0.293961 
3 0.446749 
4 0.599122 
5 0.745370 
6 0.853737 
7 0.905062 
8 0.921904 
9 0.935524 
10 0.949408 
11 0.947320 
12 0.927202 
13 0.891316 
14 0.824874 
15 0.725631 
16 0.614177 
17 0.485210 
18 0.318333 
19 0.138760 
20 -0.008031 
21 -0.146387 
22 -0.303765 
23 -0.462495 
24 -0.600710 
25 -0.725795 
26 -0.829922 
27 -0.896762 
28 -0.938671 
29 -0.970967 
30 -0.981522 
31 -0.962861 
32 -0.928375 
33 -0.883933 
34 -0.820597 
35 -0.729150 
36 -0.603756 
37 -0.450532 
38 -0.287925 
39 -0.136428 
Zone T= "2"
I=40 
0 0.002212 
1 0.141506 
2 0.293608 
3 0.446464 
4 0.599197 
5 0.746014 
6 0.854871 
7 0.905994 
8 0.921769 
9 0.934212 
10 0.947622 
11 0.945682 
12 0.926077 
13 0.890987 
14 0.825212 
15 0.726254 
16 0.615028 
17 0.486136 
18 0.318742 
19 0.138562 
20 -0.008143 
21 -0.146166 
22 -0.303669 
23 -0.462760 
24 -0.601208 
25 -0.726350 
26 -0.830198 
27 -0.896566 
28 -0.938287 
29 -0.970537 
30 -0.980835 
31 -0.962077 
32 -0.928001 
33 -0.884099 
34 -0.821059 
35 -0.729626 
36 -0.603904 
37 -0.450215 
38 -0.287426 
39 -0.136106 
Zone T= "3"
I=40 
0 0.002275 
1 0.141333 
2 0.293262 
3 0.446178 
4 0.599257 
5 0.746631 
6 0.855988 
7 0.906941 
8 0.921676 
9 0.932937 
10 0.945842 
11 0.944026 
12 0.924926 
13 0.890631 
14 0.825534 
15 0.726878 
16 0.615884 
17 0.487061 
18 0.319158 
19 0.138380 
20 -0.008249 
21 -0.145949 
22 -0.303575 
23 -0.463029 
24 -0.601712 
25 -0.726895 
26 -0.830451 
27 -0.896364 
28 -0.937909 
29 -0.970101 
30 -0.980141 
31 -0.961306 
32 -0.927652 
33 -0.884280 
34 -0.821520 
35 -0.730089 
36 -0.604036 
37 -0.449893 
38 -0.286938 
39 -0.135794 
Zone T= "4"
I=40 
0 0.002340 
1 0.141168 
2 0.292923 
3 0.445894 
4 0.599303 
5 0.747222 
6 0.857088 
7 0.907901 
8 0.921624 
9 0.931700 
10 0.944071 
11 0.942351 
12 0.923747 
13 0.890249 
14 0.825839 
15 0.727502 
16 0.616744 
17 0.487986 
18 0.319581 
19 0.138214 
20 -0.008347 
21 -0.145736 
22 -0.303484 
23 -0.463303 
24 -0.602220 
25 -0.727428 
26 -0.830682 
27 -0.896156 
28 -0.937536 
29 -0.969659 
30 -0.979440 
31 -0.960549 
32 -0.927328 
33 -0.884476 
34 -0.821981 
35 -0.730540 
36 -0.604152 
37 -0.449568 
38 -0.286458 
39 -0.135490 
Zone T= "5"
I=40 
0 0.002405 
1 0.141010 
2 0.292591 
3 0.445610 
4 0.599336 
5 0.747788 
6 0.858171 
7 0.908875 
8 0.921612 
9 0.930503 
10 0.942308 
11 0.940658 
12 0.922542 
13 0.889840 
14 0.826129 
15 0.728125 
16 0.617608 
17 0.488911 
18 0.320011 
19 0.138064 
20 -0.008439 
21 -0.145527 
22 -0.303396 
23 -0.463580 
24 -0.602732 
25 -0.727948 
26 -0.830893 
27 -0.895944 
28 -0.937168 
29 -0.969210 
30 -0.978733 
31 -0.959808 
32 -0.927029 
33 -0.884687 
34 -0.822440 
35 -0.730977 
36 -0.604253 
37 -0.449239 
38 -0.285989 
39 -0.135195 
Zone T= "6"
I=40 
0 0.002472 
1 0.140858 
2 0.292267 
3 0.445326 
4 0.599355 
5 0.748329 
6 0.859238 
7 0.909860 
8 0.921641 
9 0.929344 
10 0.940557 
11 0.938950 
12 0.921310 
13 0.889405 
14 0.826401 
15 0.728748 
16 0.618476 
17 0.489837 
18 0.320448 
19 0.137929 
20 -0.008524 
21 -0.145321 
22 -0.303311 
23 -0.463862 
24 -0.603247 
25 -0.728456 
26 -0.831083 
27 -0.895728 
28 -0.936804 
29 -0.968754 
30 -0.978020 
31 -0.959082 
32 -0.926755 
33 -0.884910 
34 -0.822899 
35 -0.731402 
36 -0.604340 
37 -0.448907 
38 -0.285528 
39 -0.134907 
Zone T= "7"
I=40 
0 0.002540 
1 0.140713 
2 0.291950 
3 0.445044 
4 0.599361 
5 0.748845 
6 0.860287 
7 0.910855 
8 0.921708 
9 0.928226 
10 0.938817 
11 0.937226 
12 0.920053 
13 0.888942 
14 0.826655 
15 0.729370 
16 0.619348 
17 0.490762 
18 0.320892 
19 0.137809 
20 -0.008601 
21 -0.145118 
22 -0.303229 
23 -0.464148 
24 -0.603765 
25 -0.728950 
26 -0.831253 
27 -0.895509 
28 -0.936446 
29 -0.968290 
30 -0.977304 
31 -0.958374 
32 -0.926504 
33 -0.885146 
34 -0.823355 
35 -0.731814 
36 -0.604412 
37 -0.448572 
38 -0.285077 
39 -0.134627 
Zone T= "8"
I=40 
0 0.002608 
1 0.140574 
2 0.291640 
3 0.444763 
4 0.599355 
5 0.749339 
6 0.861320 
7 0.911861 
8 0.921813 
9 0.927148 
10 0.937091 
11 0.935488 
12 0.918769 
13 0.888451 
14 0.826891 
15 0.729991 
16 0.620225 
17 0.491689 
18 0.321343 
19 0.137704 
20 -0.008673 
21 -0.144919 
22 -0.303149 
23 -0.464439 
24 -0.604286 
25 -0.729431 
26 -0.831404 
27 -0.895289 
28 -0.936092 
29 -0.967817 
30 -0.976584 
31 -0.957683 
32 -0.926277 
33 -0.885394 
34 -0.823810 
35 -0.732214 
36 -0.604471 
37 -0.448236 
38 -0.284634 
39 -0.134354 
Zone T= "9"
I=40 
0 0.002678 
1 0.140441 
2 0.291336 
3 0.444485 
4 0.599338 
5 0.749810 
6 0.862336 
7 0.912875 
8 0.921955 
9 0.926110 
10 0.935380 
11 0.933737 
12 0.917459 
13 0.887933 
14 0.827108 
15 0.730609 
16 0.621105 
17 0.492616 
18 0.321801 
19 0.137613 
20 -0.008738 
21 -0.144721 
22 -0.303072 
23 -0.464735 
24 -0.604808 
25 -0.729897 
26 -0.831537 
27 -0.895067 
28 -0.935741 
29 -0.967337 
30 -0.975861 
31 -0.957010 
32 -0.926073 
33 -0.885653 
34 -0.824263 
35 -0.732601 
36 -0.604516 
37 -0.447898 
38 -0.284201 
39 -0.134088 
Zone T= "10"
I=40 
0 0.002748 
1 0.140314 
2 0.291041 
3 0.444209 
4 0.599311 
5 0.750260 
6 0.863335 
7 0.913896 
8 0.922132 
9 0.925112 
10 0.933684 
11 0.931975 
12 0.916123 
13 0.887386 
14 0.827306 
15 0.731224 
16 0.621989 
17 0.493544 
18 0.322267 
19 0.137536 
20 -0.008796 
21 -0.144527 
22 -0.302999 
23 -0.465036 
24 -0.605332 
25 -0.730349 
26 -0.831653 
27 -0.894845 
28 -0.935393 
29 -0.966849 
30 -0.975137 
31 -0.956356 
32 -0.925891 
33 -0.885923 
34 -0.824713 
35 -0.732977 
36 -0.604548 
37 -0.447559 
38 -0.283776 
39 -0.133828 
Zone T= "11"
I=40 
0 0.002819 
1 0.140191 
2 0.290752 
3 0.443935 
4 0.599273 
5 0.750688 
6 0.864317 
7 0.914925 
8 0.922345 
9 0.924156 
10 0.932006 
11 0.930201 
12 0.914763 
13 0.886811 
14 0.827484 
15 0.731836 
16 0.622877 
17 0.494474 
18 0.322739 
19 0.137473 
20 -0.008849 
21 -0.144335 
22 -0.302929 
23 -0.465342 
24 -0.605856 
25 -0.730786 
26 -0.831753 
27 -0.894622 
28 -0.935047 
29 -0.966352 
30 -0.974412 
31 -0.955721 
32 -0.925732 
33 -0.886202 
34 -0.825161 
35 -0.733340 
36 -0.604568 
37 -0.447219 
38 -0.283359 
39 -0.133574 
Zone T= "12"
I=40 
0 0.002891 
1 0.140073 
2 0.290469 
3 0.443664 
4 0.599225 
5 0.751096 
6 0.865282 
7 0.915959 
8 0.922592 
9 0.923240 
10 0.930345 
11 0.928418 
12 0.913378 
13 0.886207 
14 0.827641 
15 0.732445 
16 0.623767 
17 0.495405 
18 0.323219 
19 0.137422 
20 -0.008896 
21 -0.144145 
22 -0.302863 
23 -0.465654 
24 -0.606381 
25 -0.731209 
26 -0.831837 
27 -0.894400 
28 -0.934703 
29 -0.965847 
30 -0.973688 
31 -0.955105 
32 -0.925593 
33 -0.886490 
34 -0.825605 
35 -0.733691 
36 -0.604577 
37 -0.446878 
38 -0.282951 
39 -0.133325 
Zone T= "13"
I=40 
0 0.002963 
1 0.139960 
2 0.290194 
3 0.443394 
4 0.599168 
5 0.751483 
6 0.866231 
7 0.916998 
8 0.922872 
9 0.922366 
10 0.928705 
11 0.926626 
12 0.911969 
13 0.885574 
14 0.827777 
15 0.733049 
16 0.624661 
17 0.496338 
18 0.323706 
19 0.137385 
20 -0.008936 
21 -0.143957 
22 -0.302800 
23 -0.465971 
24 -0.606905 
25 -0.731616 
26 -0.831907 
27 -0.894178 
28 -0.934358 
29 -0.965333 
30 -0.972965 
31 -0.954510 
32 -0.925475 
33 -0.886787 
34 -0.826047 
35 -0.734031 
36 -0.604573 
37 -0.446538 
38 -0.282551 
39 -0.133082 
Zone T= "14"
I=40 
0 0.003036 
1 0.139852 
2 0.289926 
3 0.443128 
4 0.599101 
5 0.751851 
6 0.867163 
7 0.918042 
8 0.923185 
9 0.921532 
10 0.927084 
11 0.924827 
12 0.910536 
13 0.884912 
14 0.827893 
15 0.733648 
16 0.625558 
17 0.497273 
18 0.324201 
19 0.137360 
20 -0.008971 
21 -0.143770 
22 -0.302742 
23 -0.466293 
24 -0.607427 
25 -0.732008 
26 -0.831963 
27 -0.893957 
28 -0.934014 
29 -0.964810 
30 -0.972244 
31 -0.953934 
32 -0.925377 
33 -0.887091 
34 -0.826486 
35 -0.734359 
36 -0.604558 
37 -0.446197 
38 -0.282159 
39 -0.132843 
Zone T= "0"
I=40 
0 0.003111 
1 0.139743 
2 0.289663 
3 0.442865 
4 0.599022 
5 0.752198 
6 0.868072 
7 0.919085 
8 0.923534 
9 0.920738 
10 0.925491 
11 0.923029 
12 0.909088 
13 0.884221 
14 0.827991 
15 0.734243 
16 0.626454 
17 0.498214 
18 0.324701 
19 0.137347 
20 -0.008996 
21 -0.143581 
22 -0.302690 
23 -0.466622 
24 -0.607947 
25 -0.732385 
26 -0.832004 
27 -0.893732 
28 -0.933675 
29 -0.964281 
30 -0.971525 
31 -0.953378 
32 -0.925301 
33 -0.887403 
34 -0.826921 
35 -0.734679 
36 -0.604537 
37 -0.445860 
38 -0.281777 
39 -0.132606 
Zone T= "1"
I=40 
0 0.003185 
1 0.139640 
2 0.289406 
3 0.442604 
4 0.598937 
5 0.752525 
6 0.868966 
7 0.920134 
8 0.923910 
9 0.919988 
10 0.923918 
11 0.921228 
12 0.907615 
13 0.883502 
14 0.828065 
15 0.734832 
16 0.627355 
17 0.499156 
18 0.325211 
19 0.137346 
20 -0.009015 
21 -0.143395 
22 -0.302642 
23 -0.466956 
24 -0.608465 
25 -0.732746 
26 -0.832032 
27 -0.893511 
28 -0.933331 
29 -0.963745 
30 -0.970809 
31 -0.952843 
32 -0.925243 
33 -0.887721 
34 -0.827352 
35 -0.734987 
36 -0.604506 
37 -0.445524 
38 -0.281402 
39 -0.132375 
Zone T= "2"
I=40 
0 0.003260 
1 0.139541 
2 0.289155 
3 0.442345 
4 0.598844 
5 0.752833 
6 0.869843 
7 0.921184 
8 0.924315 
9 0.919279 
10 0.922369 
11 0.919423 
12 0.906120 
13 0.882755 
14 0.828116 
15 0.735414 
16 0.628259 
17 0.500099 
18 0.325728 
19 0.137357 
20 -0.009029 
21 -0.143211 
22 -0.302597 
23 -0.467296 
24 -0.608981 
25 -0.733092 
26 -0.832049 
27 -0.893292 
28 -0.932986 
29 -0.963201 
30 -0.970099 
31 -0.952327 
32 -0.925202 
33 -0.888046 
34 -0.827780 
35 -0.735283 
36 -0.604466 
37 -0.445188 
38 -0.281033 
39 -0.132148 
Zone T= "3"
I=40 
0 0.003336 
1 0.139447 
2 0.288911 
3 0.442089 
4 0.598743 
5 0.753124 
6 0.870704 
7 0.922236 
8 0.924748 
9 0.918609 
10 0.920844 
11 0.917615 
12 0.904604 
13 0.881979 
14 0.828143 
15 0.735988 
16 0.629165 
17 0.501045 
18 0.326253 
19 0.137379 
20 -0.009037 
21 -0.143028 
22 -0.302557 
23 -0.467641 
24 -0.609493 
25 -0.733422 
26 -0.832057 
27 -0.893073 
28 -0.932638 
29 -0.962649 
30 -0.969395 
31 -0.951833 
32 -0.925179 
33 -0.888378 
34 -0.828204 
35 -0.735569 
36 -0.604416 
37 -0.444854 
38 -0.280671 
39 -0.131926 
Zone T= "4"
I=40 
0 0.003411 
1 0.139356 
2 0.288672 
3 0.441835 
4 0.598635 
5 0.753397 
6 0.871548 
7 0.923289 
8 0.925209 
9 0.917980 
10 0.919345 
11 0.915805 
12 0.903067 
13 0.881174 
14 0.828147 
15 0.736555 
16 0.630071 
17 0.501994 
18 0.326787 
19 0.137413 
20 -0.009039 
21 -0.142846 
22 -0.302521 
23 -0.467991 
24 -0.610001 
25 -0.733738 
26 -0.832054 
27 -0.892856 
28 -0.932287 
29 -0.962090 
30 -0.968697 
31 -0.951359 
32 -0.925172 
33 -0.888714 
34 -0.828625 
35 -0.735843 
36 -0.604357 
37 -0.444521 
38 -0.280315 
39 -0.131707 
Zone T= "5"
I=40 
0 0.003487 
1 0.139269 
2 0.288440 
3 0.441583 
4 0.598519 
5 0.753654 
6 0.872376 
7 0.924341 
8 0.925696 
9 0.917390 
10 0.917871 
11 0.913996 
12 0.901511 
13 0.880339 
14 0.828127 
15 0.737113 
16 0.630979 
17 0.502946 
18 0.327328 
19 0.137458 
20 -0.009037 
21 -0.142666 
22 -0.302491 
23 -0.468345 
24 -0.610505 
25 -0.734040 
26 -0.832043 
27 -0.892640 
28 -0.931933 
29 -0.961524 
30 -0.968007 
31 -0.950905 
32 -0.925181 
33 -0.889055 
34 -0.829041 
35 -0.736107 
36 -0.604289 
37 -0.444190 
38 -0.279966 
39 -0.131491 
Zone T= "6"
I=40 
0 0.003563 
1 0.139185 
2 0.288213 
3 0.441334 
4 0.598396 
5 0.753894 
6 0.873188 
7 0.925393 
8 0.926208 
9 0.916840 
10 0.916424 
11 0.912188 
12 0.899935 
13 0.879476 
14 0.828083 
15 0.737662 
16 0.631887 
17 0.503900 
18 0.327877 
19 0.137513 
20 -0.009029 
21 -0.142487 
22 -0.302465 
23 -0.468705 
24 -0.611004 
25 -0.734327 
26 -0.832023 
27 -0.892425 
28 -0.931574 
29 -0.960952 
30 -0.967323 
31 -0.950471 
32 -0.925206 
33 -0.889400 
34 -0.829453 
35 -0.736359 
36 -0.604214 
37 -0.443860 
38 -0.279624 
39 -0.131279 
Zone T= "7"
I=40 
0 0.003639 
1 0.139105 
2 0.287993 
3 0.441087 
4 0.598265 
5 0.754119 
6 0.873983 
7 0.926443 
8 0.926745 
9 0.916329 
10 0.915003 
11 0.910383 
12 0.898341 
13 0.878583 
14 0.828014 
15 0.738201 
16 0.632795 
17 0.504858 
18 0.328435 
19 0.137579 
20 -0.009016 
21 -0.142309 
22 -0.302444 
23 -0.469068 
24 -0.611498 
25 -0.734601 
26 -0.831996 
27 -0.892211 
28 -0.931212 
29 -0.960374 
30 -0.966649 
31 -0.950057 
32 -0.925245 
33 -0.889750 
34 -0.829861 
35 -0.736602 
36 -0.604130 
37 -0.443533 
38 -0.279287 
39 -0.131070 
Zone T= "8"
I=40 
0 0.003714 
1 0.139028 
2 0.287777 
3 0.440842 
4 0.598128 
5 0.754329 
6 0.874763 
7 0.927492 
8 0.927306 
9 0.915859 
10 0.913615 
11 0.908585 
12 0.896729 
13 0.877661 
14 0.827920 
15 0.738729 
16 0.633702 
17 0.505819 
18 0.329000 
19 0.137655 
20 -0.008997 
21 -0.142133 
22 -0.302429 
23 -0.469437 
24 -0.611986 
25 -0.734861 
26 -0.831962 
27 -0.891997 
28 -0.930845 
29 -0.959791 
30 -0.965984 
31 -0.949663 
32 -0.925298 
33 -0.890103 
34 -0.830264 
35 -0.736834 
36 -0.604040 
37 -0.443207 
38 -0.278957 
39 -0.130864 
Zone T= "9"
I=40 
0 0.003789 
1 0.138953 
2 0.287565 
3 0.440598 
4 0.597984 
5 0.754523 
6 0.875525 
7 0.928538 
8 0.927892 
9 0.915433 
10 0.912266 
11 0.906796 
12 0.895101 
13 0.876710 
14 0.827800 
15 0.739245 
16 0.634608 
17 0.506783 
18 0.329573 
19 0.137740 
20 -0.008974 
21 -0.141958 
22 -0.302419 
23 -0.469810 
24 -0.612469 
25 -0.735108 
26 -0.831922 