VARIABLES = "x", "y" 
Zone T= "0"
I=40 
0 0.000380 
1 0.155591 
2 0.306773 
3 0.450753 
4 0.583463 
5 0.702649 
6 0.803893 
7 0.886589 
8 0.946436 
9 0.984301 
10 0.997078 
11 0.986921 
12 0.950815 
13 0.892316 
14 0.810839 
15 0.709833 
16 0.591114 
17 0.456646 
18 0.311594 
19 0.157997 
20 0.000837 
21 -0.156849 
22 -0.309859 
23 -0.455182 
24 -0.590037 
25 -0.709620 
26 -0.811406 
27 -0.892834 
28 -0.951993 
29 -0.987627 
30 -0.999509 
31 -0.985491 
32 -0.948084 
33 -0.887342 
34 -0.804791 
35 -0.702746 
36 -0.583347 
37 -0.450530 
38 -0.306341 
39 -0.154120 
Zone T= "1"
I=40 
0 0.000981 
1 0.154613 
2 0.304647 
3 0.447513 
4 0.579302 
5 0.698040 
6 0.799084 
7 0.881881 
8 0.942125 
9 0.980586 
10 0.994441 
11 0.985722 
12 0.950868 
13 0.893335 
14 0.812736 
15 0.712575 
16 0.594292 
17 0.459525 
18 0.313957 
19 0.159780 
20 0.001518 
21 -0.157210 
22 -0.310653 
23 -0.456534 
24 -0.592200 
25 -0.712179 
26 -0.813819 
27 -0.894606 
28 -0.952843 
29 -0.987708 
30 -0.998727 
31 -0.983464 
32 -0.944970 
33 -0.883663 
34 -0.800684 
35 -0.698246 
36 -0.579078 
37 -0.447097 
38 -0.303565 
39 -0.152056 
Zone T= "2"
I=40 
0 0.001584 
1 0.153665 
2 0.302542 
3 0.444338 
4 0.575200 
5 0.693459 
6 0.794328 
7 0.877192 
8 0.937797 
9 0.976876 
10 0.991751 
11 0.984437 
12 0.950892 
13 0.894310 
14 0.814582 
15 0.715317 
16 0.597456 
17 0.462407 
18 0.316361 
19 0.161557 
20 0.002191 
21 -0.157546 
22 -0.311476 
23 -0.457922 
24 -0.594371 
25 -0.714763 
26 -0.816224 
27 -0.896337 
28 -0.953676 
29 -0.987756 
30 -0.997888 
31 -0.981396 
32 -0.941834 
33 -0.879981 
34 -0.796579 
35 -0.693766 
36 -0.574863 
37 -0.443694 
38 -0.300809 
39 -0.150034 
Zone T= "3"
I=40 
0 0.002186 
1 0.152744 
2 0.300466 
3 0.441216 
4 0.571157 
5 0.688917 
6 0.789614 
7 0.872525 
8 0.933463 
9 0.973158 
10 0.989014 
11 0.983079 
12 0.950871 
13 0.895244 
14 0.816387 
15 0.718045 
16 0.600610 
17 0.465298 
18 0.318793 
19 0.163331 
20 0.002864 
21 -0.157872 
22 -0.312322 
23 -0.459341 
24 -0.596558 
25 -0.717363 
26 -0.818619 
27 -0.898033 
28 -0.954485 
29 -0.987770 
30 -0.996994 
31 -0.979284 
32 -0.938678 
33 -0.876295 
34 -0.792477 
35 -0.689311 
36 -0.570694 
37 -0.440323 
38 -0.298078 
39 -0.148046 
Zone T= "4"
I=40 
0 0.002784 
1 0.151848 
2 0.298424 
3 0.438145 
4 0.567169 
5 0.684418 
6 0.784939 
7 0.867879 
8 0.929132 
9 0.969428 
10 0.986232 
11 0.981653 
12 0.950799 
13 0.896139 
14 0.818155 
15 0.720750 
16 0.603757 
17 0.468203 
18 0.321246 
19 0.165109 
20 0.003538 
21 -0.158193 
22 -0.313189 
23 -0.460790 
24 -0.598766 
25 -0.719978 
26 -0.821001 
27 -0.899698 
28 -0.955270 
29 -0.987750 
30 -0.996048 
31 -0.977129 
32 -0.935505 
33 -0.872605 
34 -0.788378 
35 -0.684882 
36 -0.566571 
37 -0.436985 
38 -0.295373 
39 -0.146088 
Zone T= "5"
I=40 
0 0.003377 
1 0.150974 
2 0.296416 
3 0.435121 
4 0.563235 
5 0.679966 
6 0.780299 
7 0.863255 
8 0.924804 
9 0.965685 
10 0.983410 
11 0.980163 
12 0.950672 
13 0.896993 
14 0.819889 
15 0.723429 
16 0.606897 
17 0.471124 
18 0.323716 
19 0.166890 
20 0.004216 
21 -0.158513 
22 -0.314075 
23 -0.462268 
24 -0.600998 
25 -0.722604 
26 -0.823369 
27 -0.901332 
28 -0.956029 
29 -0.987695 
30 -0.995048 
31 -0.974932 
32 -0.932317 
33 -0.868911 
34 -0.784282 
35 -0.680481 
36 -0.562491 
37 -0.433679 
38 -0.292695 
39 -0.144158 
Zone T= "6"
I=40 
0 0.003965 
1 0.150121 
2 0.294443 
3 0.432143 
4 0.559356 
5 0.675561 
6 0.775695 
7 0.858653 
8 0.920483 
9 0.961929 
10 0.980547 
11 0.978610 
12 0.950486 
13 0.897807 
14 0.821590 
15 0.726081 
16 0.610030 
17 0.474061 
18 0.326203 
19 0.168676 
20 0.004899 
21 -0.158833 
22 -0.314980 
23 -0.463775 
24 -0.603253 
25 -0.725241 
26 -0.825722 
27 -0.902936 
28 -0.956761 
29 -0.987604 
30 -0.993996 
31 -0.972695 
32 -0.929114 
33 -0.865212 
34 -0.780191 
35 -0.676108 
36 -0.558452 
37 -0.430405 
38 -0.290043 
39 -0.142253 
Zone T= "7"
I=40 
0 0.004547 
1 0.149290 
2 0.292504 
3 0.429210 
4 0.555528 
5 0.671203 
6 0.771126 
7 0.854075 
8 0.916169 
9 0.958162 
10 0.977646 
11 0.976997 
12 0.950242 
13 0.898579 
14 0.823258 
15 0.728704 
16 0.613155 
17 0.477014 
18 0.328707 
19 0.170468 
20 0.005586 
21 -0.159153 
22 -0.315904 
23 -0.465310 
24 -0.605533 
25 -0.727887 
26 -0.828060 
27 -0.904510 
28 -0.957465 
29 -0.987476 
30 -0.992893 
31 -0.970417 
32 -0.925897 
33 -0.861510 
34 -0.776106 
35 -0.671764 
36 -0.554455 
37 -0.427162 
38 -0.287417 
39 -0.140374 
Zone T= "8"
I=40 
0 0.005124 
1 0.148477 
2 0.290598 
3 0.426322 
4 0.551752 
5 0.666892 
6 0.766593 
7 0.849519 
8 0.911864 
9 0.954383 
10 0.974708 
11 0.975326 
12 0.949939 
13 0.899310 
14 0.824892 
15 0.731297 
16 0.616271 
17 0.479982 
18 0.331226 
19 0.172266 
20 0.006278 
21 -0.159476 
22 -0.316846 
23 -0.466873 
24 -0.607838 
25 -0.730542 
26 -0.830381 
27 -0.906055 
28 -0.958141 
29 -0.987311 
30 -0.991738 
31 -0.968102 
32 -0.922667 
33 -0.857804 
34 -0.772027 
35 -0.667451 
36 -0.550497 
37 -0.423950 
38 -0.284819 
39 -0.138519 
Zone T= "9"
I=40 
0 0.005696 
1 0.147684 
2 0.288726 
3 0.423476 
4 0.548026 
5 0.662628 
6 0.762095 
7 0.844987 
8 0.907568 
9 0.950595 
10 0.971736 
11 0.973596 
12 0.949577 
13 0.899998 
14 0.826493 
15 0.733860 
16 0.619378 
17 0.482966 
18 0.333762 
19 0.174071 
20 0.006975 
21 -0.159801 
22 -0.317808 
23 -0.468465 
24 -0.610167 
25 -0.733203 
26 -0.832685 
27 -0.907571 
28 -0.958789 
29 -0.987106 
30 -0.990533 
31 -0.965750 
32 -0.919425 
33 -0.854095 
34 -0.767955 
35 -0.663166 
36 -0.546579 
37 -0.420769 
38 -0.282246 
39 -0.136688 
Zone T= "10"
I=40 
0 0.006265 
1 0.146910 
2 0.286886 
3 0.420673 
4 0.544351 
5 0.658410 
6 0.757633 
7 0.840478 
8 0.903281 
9 0.946797 
10 0.968730 
11 0.971810 
12 0.949155 
13 0.900642 
14 0.828059 
15 0.736393 
16 0.622476 
17 0.485964 
18 0.336314 
19 0.175883 
20 0.007677 
21 -0.160128 
22 -0.318788 
23 -0.470086 
24 -0.612520 
25 -0.735871 
26 -0.834971 
27 -0.909058 
28 -0.959407 
29 -0.986863 
30 -0.989277 
31 -0.963363 
32 -0.916171 
33 -0.850384 
34 -0.763891 
35 -0.658912 
36 -0.542699 
37 -0.417617 
38 -0.279700 
39 -0.134880 
Zone T= "11"
I=40 
0 0.006829 
1 0.146154 
2 0.285078 
3 0.417912 
4 0.540724 
5 0.654237 
6 0.753207 
7 0.835994 
8 0.899005 
9 0.942993 
10 0.965693 
11 0.969968 
12 0.948674 
13 0.901243 
14 0.829591 
15 0.738895 
16 0.625563 
17 0.488976 
18 0.338882 
19 0.177703 
20 0.008384 
21 -0.160458 
22 -0.319788 
23 -0.471736 
24 -0.614898 
25 -0.738545 
26 -0.837239 
27 -0.910515 
28 -0.959996 
29 -0.986580 
30 -0.987973 
31 -0.960941 
32 -0.912906 
33 -0.846671 
34 -0.759835 
35 -0.654688 
36 -0.538857 
37 -0.414494 
38 -0.277180 
39 -0.133095 
Zone T= "12"
I=40 
0 0.007389 
1 0.145415 
2 0.283300 
3 0.415192 
4 0.537146 
5 0.650111 
6 0.748817 
7 0.831535 
8 0.894740 
9 0.939182 
10 0.962626 
11 0.968072 
12 0.948134 
13 0.901798 
14 0.831087 
15 0.741366 
16 0.628639 
17 0.492001 
18 0.341467 
19 0.179531 
20 0.009095 
21 -0.160792 
22 -0.320807 
23 -0.473415 
24 -0.617299 
25 -0.741222 
26 -0.839488 
27 -0.911943 
28 -0.960554 
29 -0.986256 
30 -0.986619 
31 -0.958487 
32 -0.909632 
33 -0.842956 
34 -0.755789 
35 -0.650495 
36 -0.535053 
37 -0.411401 
38 -0.274685 
39 -0.131332 
Zone T= "13"
I=40 
0 0.007946 
1 0.144694 
2 0.281552 
3 0.412513 
4 0.533615 
5 0.646029 
6 0.744463 
7 0.827101 
8 0.890486 
9 0.935365 
10 0.959530 
11 0.966124 
12 0.947534 
13 0.902309 
14 0.832548 
15 0.743806 
16 0.631703 
17 0.495040 
18 0.344068 
19 0.181368 
20 0.009812 
21 -0.161128 
22 -0.321846 
23 -0.475124 
24 -0.619724 
25 -0.743904 
26 -0.841716 
27 -0.913341 
28 -0.961082 
29 -0.985891 
30 -0.985218 
31 -0.956000 
32 -0.906347 
33 -0.839239 
34 -0.751753 
35 -0.646332 
36 -0.531286 
37 -0.408336 
38 -0.272216 
39 -0.129591 
Zone T= "14"
I=40 
0 0.008499 
1 0.143989 
2 0.279833 
3 0.409873 
4 0.530131 
5 0.641992 
6 0.740145 
7 0.822692 
8 0.886244 
9 0.931544 
10 0.956406 
11 0.964123 
12 0.946875 
13 0.902773 
14 0.833973 
15 0.746214 
16 0.634755 
17 0.498090 
18 0.346686 
19 0.183214 
20 0.010532 
21 -0.161469 
22 -0.322905 
23 -0.476862 
24 -0.622173 
25 -0.746587 
26 -0.843925 
27 -0.914709 
28 -0.961578 
29 -0.985484 
30 -0.983770 
31 -0.953483 
32 -0.903054 
33 -0.835522 
34 -0.747728 
35 -0.642199 
36 -0.527554 
37 -0.405298 
38 -0.269773 
39 -0.127871 
Zone T= "0"
I=40 
0 0.008671 
1 0.143627 
2 0.278285 
3 0.407499 
4 0.526880 
5 0.637733 
6 0.735871 
7 0.817780 
8 0.882468 
9 0.927832 
10 0.953543 
11 0.961891 
12 0.946047 
13 0.903301 
14 0.835053 
15 0.748358 
16 0.637346 
17 0.501343 
18 0.349385 
19 0.185085 
20 0.011335 
21 -0.161358 
22 -0.323674 
23 -0.478902 
24 -0.624280 
25 -0.749630 
26 -0.845735 
27 -0.916382 
28 -0.961895 
29 -0.985118 
30 -0.983035 
31 -0.950676 
32 -0.900159 
33 -0.831292 
34 -0.744046 
35 -0.637135 
36 -0.523912 
37 -0.402113 
38 -0.267310 
39 -0.125949 
Zone T= "1"
I=40 
0 0.009067 
1 0.143054 
2 0.276916 
3 0.405130 
4 0.523578 
5 0.633730 
6 0.731364 
7 0.813198 
8 0.878388 
9 0.924363 
10 0.950505 
11 0.959674 
12 0.945202 
13 0.903666 
14 0.836249 
15 0.750328 
16 0.640055 
17 0.504475 
18 0.352198 
19 0.186899 
20 0.012193 
21 -0.161262 
22 -0.324546 
23 -0.480765 
24 -0.626750 
25 -0.752241 
26 -0.847953 
27 -0.917717 
28 -0.962285 
29 -0.984847 
30 -0.981945 
31 -0.948252 
32 -0.896752 
33 -0.827604 
34 -0.739843 
35 -0.632537 
36 -0.520021 
37 -0.399131 
38 -0.264733 
39 -0.124224 
Zone T= "2"
I=40 
0 0.009475 
1 0.142476 
2 0.275575 
3 0.402806 
4 0.520309 
5 0.629782 
6 0.726906 
7 0.808631 
8 0.874311 
9 0.920887 
10 0.947452 
11 0.957423 
12 0.944292 
13 0.903980 
14 0.837420 
15 0.752267 
16 0.642749 
17 0.507608 
18 0.355020 
19 0.188738 
20 0.013056 
21 -0.161180 
22 -0.325432 
23 -0.482661 
24 -0.629243 
25 -0.754843 
26 -0.850161 
27 -0.919016 
28 -0.962637 
29 -0.984563 
30 -0.980796 
31 -0.945772 
32 -0.893361 
33 -0.823905 
34 -0.735627 
35 -0.627997 
36 -0.516169 
37 -0.396158 
38 -0.262203 
39 -0.122515 
Zone T= "3"
I=40 
0 0.009889 
1 0.141905 
2 0.274257 
3 0.400521 
4 0.517081 
5 0.625886 
6 0.722492 
7 0.804084 
8 0.870235 
9 0.917401 
10 0.944387 
11 0.955138 
12 0.943317 
13 0.904244 
14 0.838562 
15 0.754177 
16 0.645424 
17 0.510740 
18 0.357854 
19 0.190597 
20 0.013927 
21 -0.161112 
22 -0.326340 
23 -0.484586 
24 -0.631755 
25 -0.757445 
26 -0.852351 
27 -0.920280 
28 -0.962961 
29 -0.984257 
30 -0.979590 
31 -0.943247 
32 -0.889976 
33 -0.820200 
34 -0.731408 
35 -0.623506 
36 -0.512355 
37 -0.393201 
38 -0.259707 
39 -0.120826 
Zone T= "4"
I=40 
0 0.010306 
1 0.141344 
2 0.272960 
3 0.398273 
4 0.513898 
5 0.622037 
6 0.718122 
7 0.799562 
8 0.866160 
9 0.913905 
10 0.941313 
11 0.952820 
12 0.942280 
13 0.904457 
14 0.839675 
15 0.756058 
16 0.648080 
17 0.513873 
18 0.360701 
19 0.192475 
20 0.014806 
21 -0.161056 
22 -0.327272 
23 -0.486537 
24 -0.634287 
25 -0.760049 
26 -0.854519 
27 -0.921508 
28 -0.963261 
29 -0.983922 
30 -0.978328 
31 -0.940685 
32 -0.886591 
33 -0.816488 
34 -0.727192 
35 -0.619058 
36 -0.508581 
37 -0.390264 
38 -0.257242 
39 -0.119158 
Zone T= "5"
I=40 
0 0.010725 
1 0.140796 
2 0.271682 
3 0.396061 
4 0.510761 
5 0.618235 
6 0.713795 
7 0.795067 
8 0.862086 
9 0.910401 
10 0.938230 
11 0.950470 
12 0.941181 
13 0.904619 
14 0.840758 
15 0.757911 
16 0.650716 
17 0.517005 
18 0.363561 
19 0.194372 
20 0.015694 
21 -0.161013 
22 -0.328231 
23 -0.488513 
24 -0.636838 
25 -0.762655 
26 -0.856661 
27 -0.922701 
28 -0.963539 
29 -0.983554 
30 -0.977010 
31 -0.938089 
32 -0.883205 
33 -0.812770 
34 -0.722981 
35 -0.614651 
36 -0.504846 
37 -0.387348 
38 -0.254804 
39 -0.117512 
Zone T= "6"
I=40 
0 0.011145 
1 0.140260 
2 0.270422 
3 0.393882 
4 0.507668 
5 0.614478 
6 0.709511 
7 0.790601 
8 0.858013 
9 0.906887 
10 0.935141 
11 0.948088 
12 0.940023 
13 0.904728 
14 0.841809 
15 0.759736 
16 0.653331 
17 0.520136 
18 0.366434 
19 0.196287 
20 0.016593 
21 -0.160982 
22 -0.329215 
23 -0.490514 
24 -0.639408 
25 -0.765264 
26 -0.858777 
27 -0.923860 
28 -0.963795 
29 -0.983152 
30 -0.975638 
31 -0.935462 
32 -0.879816 
33 -0.809048 
34 -0.718778 
35 -0.610284 
36 -0.501149 
37 -0.384455 
38 -0.252391 
39 -0.115887 
Zone T= "7"
I=40 
0 0.011566 
1 0.139738 
2 0.269180 
3 0.391737 
4 0.504621 
5 0.610765 
6 0.705269 
7 0.786163 
8 0.853943 
9 0.903365 
10 0.932043 
11 0.945676 
12 0.938805 
13 0.904785 
14 0.842827 
15 0.761531 
16 0.655925 
17 0.523265 
18 0.369320 
19 0.198220 
20 0.017501 
21 -0.160964 
22 -0.330227 
23 -0.492539 
24 -0.641997 
25 -0.767873 
26 -0.860864 
27 -0.924985 
28 -0.964029 
29 -0.982713 
30 -0.974212 
31 -0.932804 
32 -0.876424 
33 -0.805321 
34 -0.714584 
35 -0.605955 
36 -0.497490 
37 -0.381583 
38 -0.250003 
39 -0.114284 
Zone T= "8"
I=40 
0 0.011988 
1 0.139229 
2 0.267955 
3 0.389624 
4 0.501618 
5 0.607096 
6 0.701069 
7 0.781755 
8 0.849876 
9 0.899835 
10 0.928940 
11 0.943235 
12 0.937530 
13 0.904789 
14 0.843811 
15 0.763299 
16 0.658497 
17 0.526392 
18 0.372218 
19 0.200171 
20 0.018418 
21 -0.160959 
22 -0.331264 
23 -0.494588 
24 -0.644604 
25 -0.770483 
26 -0.862924 
27 -0.926077 
28 -0.964240 
29 -0.982237 
30 -0.972735 
31 -0.930119 
32 -0.873028 
33 -0.801591 
34 -0.710401 
35 -0.601665 
36 -0.493868 
37 -0.378733 
38 -0.247640 
39 -0.112702 
Zone T= "9"
I=40 
0 0.012411 
1 0.138732 
2 0.266748 
3 0.387543 
4 0.498659 
5 0.603470 
6 0.696911 
7 0.777378 
8 0.845813 
9 0.896297 
10 0.925829 
11 0.940767 
12 0.936198 
13 0.904740 
14 0.844760 
15 0.765038 
16 0.661048 
17 0.529515 
18 0.375130 
19 0.202141 
20 0.019345 
21 -0.160966 
22 -0.332328 
23 -0.496663 
24 -0.647230 
25 -0.773090 
26 -0.864954 
27 -0.927137 
28 -0.964427 
29 -0.981722 
30 -0.971207 
31 -0.927408 
32 -0.869630 
33 -0.797858 
34 -0.706229 
35 -0.597413 
36 -0.490282 
37 -0.375904 
38 -0.245302 
39 -0.111140 
Zone T= "10"
I=40 
0 0.012835 
1 0.138248 
2 0.265556 
3 0.385494 
4 0.495743 
5 0.599886 
6 0.692794 
7 0.773031 
8 0.841756 
9 0.892753 
10 0.922713 
11 0.938274 
12 0.934812 
13 0.904637 
14 0.845674 
15 0.766748 
16 0.663577 
17 0.532633 
18 0.378053 
19 0.204131 
20 0.020280 
21 -0.160987 
22 -0.333418 
23 -0.498764 
24 -0.649875 
25 -0.775695 
26 -0.866955 
27 -0.928166 
28 -0.964591 
29 -0.981168 
30 -0.969629 
31 -0.924671 
32 -0.866229 
33 -0.794122 
34 -0.702069 
35 -0.593198 
36 -0.486732 
37 -0.373097 
38 -0.242987 
39 -0.109598 
Zone T= "11"
I=40 
0 0.013260 
1 0.137776 
2 0.264381 
3 0.383475 
4 0.492869 
5 0.596345 
6 0.688718 
7 0.768716 
8 0.837705 
9 0.889201 
10 0.919590 
11 0.935757 
12 0.933372 
13 0.904479 
14 0.846551 
15 0.768430 
16 0.666083 
17 0.535746 
18 0.380990 
19 0.206139 
20 0.021224 
21 -0.161021 
22 -0.334534 
23 -0.500890 
24 -0.652536 
25 -0.778296 
26 -0.868927 
27 -0.929163 
28 -0.964729 
29 -0.980574 
30 -0.968003 
31 -0.921910 
32 -0.862826 
33 -0.790384 
34 -0.697922 
35 -0.589022 
36 -0.483216 
37 -0.370311 
38 -0.240696 
39 -0.108076 
Zone T= "12"
I=40 
0 0.013686 
1 0.137316 
2 0.263222 
3 0.381486 
4 0.490037 
5 0.592844 
6 0.684683 
7 0.764432 
8 0.833662 
9 0.885643 
10 0.916463 
11 0.933218 
12 0.931880 
13 0.904266 
14 0.847389 
15 0.770082 
16 0.668567 
17 0.538853 
18 0.383938 
19 0.208167 
20 0.022176 
21 -0.161069 
22 -0.335677 
23 -0.503042 
24 -0.655215 
25 -0.780891 
26 -0.870868 
27 -0.930128 
28 -0.964841 
29 -0.979939 
30 -0.966330 
31 -0.919127 
32 -0.859419 
33 -0.786645 
34 -0.693790 
35 -0.584882 
36 -0.479734 
37 -0.367546 
38 -0.238429 
39 -0.106574 
Zone T= "13"
I=40 
0 0.014113 
1 0.136867 
2 0.262078 
3 0.379527 
4 0.487246 
5 0.589385 
6 0.680688 
7 0.760180 
8 0.829627 
9 0.882080 
10 0.913331 
11 0.930657 
12 0.930338 
13 0.903998 
14 0.848189 
15 0.771705 
16 0.671027 
17 0.541954 
18 0.386899 
19 0.210214 
20 0.023136 
21 -0.161129 
22 -0.336846 
23 -0.505221 
24 -0.657911 
25 -0.783479 
26 -0.872780 
27 -0.931063 
28 -0.964926 
29 -0.979263 
30 -0.964610 
31 -0.916323 
32 -0.856011 
33 -0.782905 
34 -0.689672 
35 -0.580780 
36 -0.476285 
37 -0.364801 
38 -0.236185 
39 -0.105090 
Zone T= "14"
I=40 
0 0.014541 
1 0.136430 
2 0.260949 
3 0.377597 
4 0.484494 
5 0.585966 
6 0.676734 
7 0.755960 
8 0.825601 
9 0.878511 
10 0.910193 
11 0.928076 
12 0.928747 
13 0.903675 
14 0.848948 
15 0.773299 
16 0.673465 
17 0.545046 
18 0.389872 
19 0.212281 
20 0.024105 
21 -0.161202 
22 -0.338041 
23 -0.507426 
24 -0.660623 
25 -0.786060 
26 -0.874661 
27 -0.931968 
28 -0.964985 
29 -0.978546 
30 -0.962846 
31 -0.913498 
32 -0.852600 
33 -0.779165 
34 -0.685570 
35 -0.576715 
36 -0.472869 
37 -0.362078 
38 -0.233964 
39 -0.103625 
Zone T= "0"
I=40 
0 0.014706 
1 0.135733 
2 0.259582 
3 0.375830 
4 0.482079 
5 0.582926 
6 0.673024 
7 0.752217 
8 0.821544 
9 0.874798 
10 0.907626 
11 0.924876 
12 0.926835 
13 0.903096 
14 0.850086 
15 0.774977 
16 0.675791 
17 0.548842 
18 0.392675 
19 0.213778 
20 0.024784 
21 -0.161085 
22 -0.339545 
23 -0.509523 
24 -0.663207 
25 -0.788559 
26 -0.876569 
27 -0.932185 
28 -0.965622 
29 -0.977546 
30 -0.961158 
31 -0.910587 
32 -0.849119 
33 -0.775857 
34 -0.681966 
35 -0.572878 
36 -0.469490 
37 -0.359225 
38 -0.231287 
39 -0.102444 
Zone T= "1"
I=40 
0 0.014821 
1 0.135061 
2 0.258231 
3 0.374068 
4 0.479762 
5 0.579795 
6 0.669503 
7 0.748411 
8 0.817473 
9 0.871263 
10 0.904748 
11 0.922020 
12 0.924588 
13 0.902633 
14 0.851108 
15 0.776561 
16 0.678273 
17 0.552405 
18 0.395664 
19 0.215217 
20 0.025534 
21 -0.161084 
22 -0.340952 
23 -0.511740 
24 -0.665747 
25 -0.791138 
26 -0.878215 
27 -0.932781 
28 -0.965757 
29 -0.976892 
30 -0.959237 
31 -0.907638 
32 -0.845763 
33 -0.772486 
34 -0.678352 
35 -0.569113 
36 -0.466161 
37 -0.356272 
38 -0.228806 
39 -0.101153 
Zone T= "2"
I=40 
0 0.014970 
1 0.134363 
2 0.256910 
3 0.372343 
4 0.477447 
5 0.576719 
6 0.666023 
7 0.744621 
8 0.813441 
9 0.867716 
10 0.901853 
11 0.919180 
12 0.922298 
13 0.902094 
14 0.852079 
15 0.778116 
16 0.680749 
17 0.555936 
18 0.398659 
19 0.216727 
20 0.026264 
21 -0.161124 
22 -0.342334 
23 -0.514010 
24 -0.668324 
25 -0.793650 
26 -0.879861 
27 -0.933370 
28 -0.965818 
29 -0.976230 
30 -0.957273 
31 -0.904631 
32 -0.842464 
33 -0.769116 
34 -0.674704 
35 -0.565424 
36 -0.462848 
37 -0.353305 
38 -0.226400 
39 -0.099866 
Zone T= "3"
I=40 
0 0.015138 
1 0.133662 
2 0.255610 
3 0.370646 
4 0.475151 
5 0.573687 
6 0.662580 
7 0.740859 
8 0.809438 
9 0.864159 
10 0.898945 
11 0.916351 
12 0.919971 
13 0.901479 
14 0.852993 
15 0.779648 
16 0.683209 
17 0.559438 
18 0.401669 
19 0.218291 
20 0.026984 
21 -0.161194 
22 -0.343715 
23 -0.516318 
24 -0.670926 
25 -0.796122 
26 -0.881490 
27 -0.933945 
28 -0.965833 
29 -0.975537 
30 -0.955265 
31 -0.901594 
32 -0.839198 
33 -0.765749 
34 -0.671047 
35 -0.561784 
36 -0.459555 
37 -0.350343 
38 -0.224045 
39 -0.098591 
Zone T= "4"
I=40 
0 0.015318 
1 0.132968 
2 0.254325 
3 0.368972 
4 0.472881 
5 0.570695 
6 0.659170 
7 0.737128 
8 0.805462 
9 0.860594 
10 0.896027 
11 0.913529 
12 0.917613 
13 0.900788 
14 0.853850 
15 0.781160 
16 0.685648 
17 0.562914 
18 0.404698 
19 0.219899 
20 0.027699 
21 -0.161291 
22 -0.345105 
23 -0.518658 
24 -0.673548 
25 -0.798564 
26 -0.883093 
27 -0.934504 
28 -0.965812 
29 -0.974802 
30 -0.953213 
31 -0.898540 
32 -0.835952 
33 -0.762385 
34 -0.667393 
35 -0.558181 
36 -0.456285 
37 -0.347397 
38 -0.221727 
39 -0.097330 
Zone T= "5"
I=40 
0 0.015506 
1 0.132284 
2 0.253055 
3 0.367317 
4 0.470642 
5 0.567739 
6 0.655792 
7 0.733432 
8 0.801512 
9 0.857021 
10 0.893099 
11 0.910712 
12 0.915226 
13 0.900022 
14 0.854648 
15 0.782650 
16 0.688064 
17 0.566363 
18 0.407745 
19 0.221549 
20 0.028412 
21 -0.161413 
22 -0.346510 
23 -0.521026 
24 -0.676189 
25 -0.800981 
26 -0.884666 
27 -0.935045 
28 -0.965760 
29 -0.974019 
30 -0.951119 
31 -0.895477 
32 -0.832719 
33 -0.759024 
34 -0.663748 
35 -0.554608 
36 -0.453036 
37 -0.344470 
38 -0.219442 
39 -0.096084 
Zone T= "6"
I=40 
0 0.015700 
1 0.131614 
2 0.251797 
3 0.365682 
4 0.468433 
5 0.564819 
6 0.652447 
7 0.729771 
8 0.797586 
9 0.853444 
10 0.890162 
11 0.907901 
12 0.912813 
13 0.899184 
14 0.855385 
15 0.784119 
16 0.690457 
17 0.569788 
18 0.410812 
19 0.223237 
20 0.029125 
21 -0.161557 
22 -0.347933 
23 -0.523420 
24 -0.678845 
25 -0.803374 
26 -0.886206 
27 -0.935568 
28 -0.965679 
29 -0.973186 
30 -0.948984 
31 -0.892407 
32 -0.829498 
33 -0.755668 
34 -0.660115 
35 -0.551063 
36 -0.449811 
37 -0.341564 
38 -0.217184 
39 -0.094854 
Zone T= "7"
I=40 
0 0.015899 
1 0.130957 
2 0.250552 
3 0.364064 
4 0.466256 
5 0.561934 
6 0.649133 
7 0.726146 
8 0.793686 
9 0.849862 
10 0.887216 
11 0.905094 
12 0.910376 
13 0.898275 
14 0.856061 
15 0.785564 
16 0.692825 
17 0.573188 
18 0.413897 
19 0.224963 
20 0.029840 
21 -0.161725 
22 -0.349376 
23 -0.525839 
24 -0.681516 
25 -0.805746 
26 -0.887714 
27 -0.936072 
28 -0.965568 
29 -0.972301 
30 -0.946811 
31 -0.889334 
32 -0.826285 
33 -0.752316 
34 -0.656495 
35 -0.547544 
36 -0.446609 
37 -0.338681 
38 -0.214954 
39 -0.093639 
Zone T= "8"
I=40 
0 0.016103 
1 0.130314 
2 0.249319 
3 0.362464 
4 0.464109 
5 0.559083 
6 0.645850 
7 0.722554 
8 0.789812 
9 0.846278 
10 0.884260 
11 0.902291 
12 0.907917 
13 0.897296 
14 0.856675 
15 0.786985 
16 0.695169 
17 0.576564 
18 0.416999 
19 0.226726 
20 0.030556 
21 -0.161916 
22 -0.350840 
23 -0.528283 
24 -0.684200 
25 -0.808094 
26 -0.889188 
27 -0.936559 
28 -0.965428 
29 -0.971365 
30 -0.944602 
31 -0.886258 
32 -0.823081 
33 -0.748969 
34 -0.652890 
35 -0.544049 
36 -0.443430 
37 -0.335820 
38 -0.212750 
39 -0.092440 
Zone T= "9"
I=40 
0 0.016311 
1 0.129686 
2 0.248099 
3 0.360881 
4 0.461992 
5 0.556266 
6 0.642597 
7 0.718997 
8 0.785964 
9 0.842691 
10 0.881294 
11 0.899491 
12 0.905438 
13 0.896250 
14 0.857225 
15 0.788379 
16 0.697488 
17 0.579915 
18 0.420118 
19 0.228526 
20 0.031275 
21 -0.162129 
22 -0.352326 
23 -0.530752 
24 -0.686896 
25 -0.810420 
26 -0.890630 
27 -0.937026 
28 -0.965256 
29 -0.970376 
30 -0.942358 
31 -0.883181 
32 -0.819883 
33 -0.745627 
34 -0.649301 
35 -0.540578 
36 -0.440273 
37 -0.332983 
38 -0.210570 
39 -0.091255 
Zone T= "10"
I=40 
0 0.016522 
1 0.129071 
2 0.246892 
3 0.359314 
4 0.459904 
5 0.553483 
6 0.639376 
7 0.715474 
8 0.782143 
9 0.839105 
10 0.878319 
11 0.896695 
12 0.902941 
13 0.895138 
14 0.857712 
15 0.789745 
16 0.699782 
17 0.583241 
18 0.423253 
19 0.230362 
20 0.031997 
21 -0.162365 
22 -0.353834 
23 -0.533245 
24 -0.689603 
25 -0.812721 
26 -0.892039 
27 -0.937474 
28 -0.965052 
29 -0.969337 
30 -0.940081 
31 -0.880104 
32 -0.816693 
33 -0.742292 
34 -0.645727 
35 -0.537132 
36 -0.437139 
37 -0.330169 
38 -0.208415 
39 -0.090085 
Zone T= "11"
I=40 
0 0.016736 
1 0.128469 
2 0.245697 
3 0.357763 
4 0.457845 
5 0.550733 
6 0.636184 
7 0.711983 
8 0.778349 
9 0.835520 
10 0.875335 
11 0.893903 
12 0.900427 
13 0.893963 
14 0.858135 
15 0.791082 
16 0.702051 
17 0.586544 
18 0.426403 
19 0.232233 
20 0.032723 
21 -0.162624 
22 -0.355364 
23 -0.535762 
24 -0.692320 
25 -0.814999 
26 -0.893416 
27 -0.937902 
28 -0.964815 
29 -0.968247 
30 -0.937773 
31 -0.877028 
32 -0.813509 
33 -0.738962 
34 -0.642170 
35 -0.533708 
36 -0.434027 
37 -0.327378 
38 -0.206283 
39 -0.088928 
Zone T= "12"
I=40 
0 0.016954 
1 0.127881 
2 0.244516 
3 0.356228 
4 0.455813 
5 0.548017 
6 0.633023 
7 0.708525 
8 0.774583 
9 0.831937 
10 0.872342 
11 0.891113 
12 0.897898 
13 0.892727 
14 0.858494 
15 0.792388 
16 0.704293 
17 0.589821 
18 0.429567 
19 0.234139 
20 0.033454 
21 -0.162904 
22 -0.356919 
23 -0.538303 
24 -0.695045 
25 -0.817252 
26 -0.894762 
27 -0.938310 
28 -0.964544 
29 -0.967106 
30 -0.935436 
31 -0.873952 
32 -0.810332 
33 -0.735638 
34 -0.638629 
35 -0.530307 
36 -0.430937 
37 -0.324611 
38 -0.204175 
39 -0.087784 
Zone T= "13"
I=40 
0 0.017174 
1 0.127305 
2 0.243347 
3 0.354708 
4 0.453809 
5 0.545334 
6 0.629891 
7 0.705099 
8 0.770845 
9 0.828357 
10 0.869339 
11 0.888325 
12 0.895355 
13 0.891431 
14 0.858788 
15 0.793661 
16 0.706510 
17 0.593075 
18 0.432744 
19 0.236079 
20 0.034190 
21 -0.163207 
22 -0.358498 
23 -0.540867 
24 -0.697778 
25 -0.819480 
26 -0.896075 
27 -0.938697 
28 -0.964239 
29 -0.965916 
30 -0.933070 
31 -0.870878 
32 -0.807160 
33 -0.732322 
34 -0.635106 
35 -0.526929 
36 -0.427869 
37 -0.321867 
38 -0.202089 
39 -0.086653 
Zone T= "14"
I=40 
0 0.017396 
1 0.126742 
2 0.242192 
3 0.353203 
4 0.451831 
5 0.542684 
6 0.626789 
7 0.701704 
8 0.767134 
9 0.824782 
10 0.866328 
11 0.885540 
12 0.892799 
13 0.890078 
14 0.859017 
15 0.794901 
16 0.708699 
17 0.596303 
18 0.435934 
19 0.238053 
20 0.034931 
21 -0.163531 
22 -0.360101 
23 -0.543455 
24 -0.700516 
25 -0.821682 
26 -0.897357 
27 -0.939063 
28 -0.963897 
29 -0.964676 
30 -0.930679 
31 -0.867806 
32 -0.803995 
33 -0.729011 
34 -0.631600 
35 -0.523574 
36 -0.424822 
37 -0.319146 
38 -0.200026 
39 -0.085535 
Zone T= "0"
I=40 
0 0.017820 
1 0.125828 
2 0.241192 
3 0.351692 
4 0.449582 
5 0.539791 
6 0.623745 
7 0.698543 
8 0.763454 
9 0.820801 
10 0.863299 
11 0.882970 
12 0.890292 
13 0.888178 
14 0.859412 
15 0.796262 
16 0.710379 
17 0.599285 
18 0.438886 
19 0.240662 
20 0.036027 
21 -0.164308 
22 -0.361348 
23 -0.546554 
24 -0.703349 
25 -0.823936 
26 -0.898840 
27 -0.939831 
28 -0.963469 
29 -0.963538 
30 -0.928243 
31 -0.864667 
32 -0.800539 
33 -0.725604 
34 -0.627594 
35 -0.520155 
36 -0.421885 
37 -0.316739 
38 -0.198157 
39 -0.084539 
Zone T= "1"
I=40 
0 0.018048 
1 0.125119 
2 0.240078 
3 0.350242 
4 0.447369 
5 0.536923 
6 0.620716 
7 0.695420 
8 0.759796 
9 0.816870 
10 0.860183 
11 0.880496 
12 0.887645 
13 0.886398 
14 0.859600 
15 0.797591 
16 0.712203 
17 0.601973 
18 0.442102 
19 0.243178 
20 0.037004 
21 -0.164764 
22 -0.363033 
23 -0.549360 
24 -0.706334 
25 -0.826140 
26 -0.900309 
27 -0.940509 
28 -0.963107 
29 -0.962240 
30 -0.925871 
31 -0.861444 
32 -0.797195 
33 -0.722062 
34 -0.623749 
35 -0.516677 
36 -0.419004 
37 -0.314336 
38 -0.196366 
39 -0.083417 
Zone T= "2"
I=40 
0 0.018252 
1 0.124455 
2 0.238966 
3 0.348788 
4 0.445214 
5 0.534076 
6 0.617699 
7 0.692338 
8 0.756162 
9 0.812963 
10 0.857054 
11 0.877993 
12 0.885025 
13 0.884572 
14 0.859687 
15 0.798905 
16 0.714009 
17 0.604623 
18 0.445344 
19 0.245698 
20 0.037984 
21 -0.165205 
22 -0.364778 
23 -0.552191 
24 -0.709284 
25 -0.828359 
26 -0.901745 
27 -0.941126 
28 -0.962742 
29 -0.960882 
30 -0.923449 
31 -0.858259 
32 -0.793834 
33 -0.718511 
34 -0.619965 
35 -0.513204 
36 -0.416140 
37 -0.311984 
38 -0.194562 
39 -0.082312 
Zone T= "3"
I=40 
0 0.018444 
1 0.123820 
2 0.237861 
3 0.347338 
4 0.443102 
5 0.531258 
6 0.614696 
7 0.689287 
8 0.752563 
9 0.809077 
10 0.853907 
11 0.875472 
12 0.882422 
13 0.882705 
14 0.859683 
15 0.800188 
16 0.715801 
17 0.607247 
18 0.448594 
19 0.248231 
20 0.038972 
21 -0.165651 
22 -0.366569 
23 -0.555044 
24 -0.712220 
25 -0.830575 
26 -0.903151 
27 -0.941700 
28 -0.962354 
29 -0.959470 
30 -0.920993 
31 -0.855092 
32 -0.790466 
33 -0.714961 
34 -0.616221 
35 -0.509748 
36 -0.413297 
37 -0.309665 
38 -0.192760 
39 -0.081220 
Zone T= "4"
I=40 
0 0.018630 
1 0.123206 
2 0.236767 
3 0.345896 
4 0.441028 
5 0.528473 
6 0.611708 
7 0.686261 
8 0.749003 
9 0.805212 
10 0.850740 
11 0.872938 
12 0.879831 
13 0.880799 
14 0.859595 
15 0.801432 
16 0.717580 
17 0.609849 
18 0.451842 
19 0.250783 
20 0.039971 
21 -0.166111 
22 -0.368398 
23 -0.557917 
24 -0.715150 
25 -0.832778 
26 -0.904527 
27 -0.942237 
28 -0.961931 
29 -0.958010 
30 -0.918510 
31 -0.851935 
32 -0.787094 
33 -0.711415 
34 -0.612509 
35 -0.506314 
36 -0.410476 
37 -0.307372 
38 -0.190968 
39 -0.080143 
Zone T= "5"
I=40 
0 0.018814 
1 0.122610 
2 0.235684 
3 0.344463 
4 0.438985 
5 0.525723 
6 0.608737 
7 0.683257 
8 0.745482 
9 0.801369 
10 0.847554 
11 0.870391 
12 0.877250 
13 0.878855 
14 0.859428 
15 0.802632 
16 0.719347 
17 0.612431 
18 0.455085 
19 0.253354 
20 0.040983 
21 -0.166589 
22 -0.370263 
23 -0.560810 
24 -0.718076 
25 -0.834964 
26 -0.905873 
27 -0.942740 
28 -0.961470 
29 -0.956504 
30 -0.916004 
31 -0.848781 
32 -0.783723 
33 -0.707878 
34 -0.608825 
35 -0.502906 
36 -0.407678 
37 -0.305100 
38 -0.189188 
39 -0.079079 
Zone T= "6"
I=40 
0 0.018996 
1 0.122029 
2 0.234613 
3 0.343040 
4 0.436972 
5 0.523009 
6 0.605785 
7 0.680272 
8 0.742001 
9 0.797549 
10 0.844350 
11 0.867833 
12 0.874678 
13 0.876878 
14 0.859183 
15 0.803784 
16 0.721099 
17 0.614994 
18 0.458322 
19 0.255947 
20 0.042008 
21 -0.167087 
22 -0.372161 
23 -0.563722 
24 -0.720999 
25 -0.837131 
26 -0.907191 
27 -0.943211 
28 -0.960967 
29 -0.954953 
30 -0.913478 
31 -0.845630 
32 -0.780353 
33 -0.704349 
34 -0.605166 
35 -0.499524 
36 -0.404903 
37 -0.302848 
38 -0.187423 
39 -0.078027 
Zone T= "7"
I=40 
0 0.019177 
1 0.121461 
2 0.233554 
3 0.341628 
4 0.434988 
5 0.520331 
6 0.602851 
7 0.677306 
8 0.738560 
9 0.793752 
10 0.841128 
11 0.865263 
12 0.872115 
13 0.874867 
14 0.858862 
15 0.804887 
16 0.722838 
17 0.617540 
18 0.461551 
19 0.258559 
20 0.043046 
21 -0.167605 
22 -0.374092 
23 -0.566653 
24 -0.723920 
25 -0.839277 
26 -0.908479 
27 -0.943649 
28 -0.960422 
29 -0.953358 
30 -0.910933 
31 -0.842480 
32 -0.776986 
33 -0.700829 
34 -0.601532 
35 -0.496169 
36 -0.402149 
37 -0.300614 
38 -0.185672 
39 -0.076987 
Zone T= "8"
I=40 
0 0.019357 
1 0.120907 
2 0.232509 
3 0.340226 
4 0.433030 
5 0.517687 
6 0.599936 
7 0.674358 
8 0.735157 
9 0.789981 
10 0.837891 
11 0.862681 
12 0.869558 
13 0.872827 
14 0.858467 
15 0.805938 
16 0.724561 
17 0.620070 
18 0.464772 
19 0.261191 
20 0.044098 
21 -0.168144 
22 -0.376057 
23 -0.569603 
24 -0.726837 
25 -0.841402 
26 -0.909737 
27 -0.944053 
28 -0.959834 
29 -0.951722 
30 -0.908370 
31 -0.839333 
32 -0.773621 
33 -0.697320 
34 -0.597923 
35 -0.492841 
36 -0.399418 
37 -0.298399 
38 -0.183937 
39 -0.075959 
Zone T= "9"
I=40 
0 0.019536 
1 0.120364 
2 0.231476 
3 0.338836 
4 0.431097 
5 0.515079 
6 0.597041 
7 0.671428 
8 0.731791 
9 0.786234 
10 0.834641 
11 0.860086 
12 0.867009 
13 0.870758 
14 0.858000 
15 0.806937 
16 0.726266 
17 0.622583 
18 0.467985 
19 0.263842 
20 0.045164 
21 -0.168703 
22 -0.378056 
23 -0.572571 
24 -0.729750 
25 -0.843504 
26 -0.910966 
27 -0.944423 
28 -0.959203 
29 -0.950046 
30 -0.905792 