VARIABLES = "x", "y" 
Zone T= "0"
I=40 
0 -0.000123 
1 0.156094 
2 0.308705 
3 0.453537 
4 0.586938 
5 0.705973 
6 0.807489 
7 0.889464 
8 0.949744 
9 0.986703 
10 0.999559 
11 0.987763 
12 0.951702 
13 0.892074 
14 0.810333 
15 0.708505 
16 0.589070 
17 0.455117 
18 0.309944 
19 0.158010 
20 0.001704 
21 -0.156135 
22 -0.309557 
23 -0.455092 
24 -0.589142 
25 -0.708663 
26 -0.810851 
27 -0.892611 
28 -0.952278 
29 -0.988448 
30 -1.000307 
31 -0.987475 
32 -0.950463 
33 -0.890104 
34 -0.807852 
35 -0.705799 
36 -0.586470 
37 -0.452901 
38 -0.308229 
39 -0.156034 
Zone T= "1"
I=40 
0 -0.000218 
1 0.155749 
2 0.308390 
3 0.453081 
4 0.586123 
5 0.704808 
6 0.806022 
7 0.887912 
8 0.948415 
9 0.985745 
10 0.999079 
11 0.987835 
12 0.952320 
13 0.893153 
14 0.811630 
15 0.709887 
16 0.590432 
17 0.456159 
18 0.310942 
19 0.159582 
20 0.003294 
21 -0.155683 
22 -0.310201 
23 -0.456168 
24 -0.590471 
25 -0.710289 
26 -0.812638 
27 -0.894228 
28 -0.953475 
29 -0.989209 
30 -1.000593 
31 -0.987260 
32 -0.949867 
33 -0.889201 
34 -0.806688 
35 -0.704493 
36 -0.585179 
37 -0.451810 
38 -0.307451 
39 -0.155654 
Zone T= "2"
I=40 
0 -0.000304 
1 0.155416 
2 0.308062 
3 0.452632 
4 0.585320 
5 0.703645 
6 0.804581 
7 0.886374 
8 0.947072 
9 0.984793 
10 0.998591 
11 0.987877 
12 0.952939 
13 0.894222 
14 0.812911 
15 0.711287 
16 0.591797 
17 0.457201 
18 0.311959 
19 0.161131 
20 0.004864 
21 -0.155207 
22 -0.310850 
23 -0.457258 
24 -0.591793 
25 -0.711932 
26 -0.814431 
27 -0.895821 
28 -0.954668 
29 -0.989961 
30 -1.000860 
31 -0.987043 
32 -0.949268 
33 -0.888294 
34 -0.805528 
35 -0.703191 
36 -0.583901 
37 -0.450729 
38 -0.306680 
39 -0.155283 
Zone T= "3"
I=40 
0 -0.000381 
1 0.155091 
2 0.307727 
3 0.452186 
4 0.584530 
5 0.702488 
6 0.803160 
7 0.884849 
8 0.945721 
9 0.983841 
10 0.998094 
11 0.987896 
12 0.953548 
13 0.895283 
14 0.814183 
15 0.712694 
16 0.593168 
17 0.458252 
18 0.312986 
19 0.162662 
20 0.006421 
21 -0.154716 
22 -0.311498 
23 -0.458357 
24 -0.593116 
25 -0.713588 
26 -0.816226 
27 -0.897397 
28 -0.955851 
29 -0.990705 
30 -1.001113 
31 -0.986821 
32 -0.948667 
33 -0.887385 
34 -0.804370 
35 -0.701896 
36 -0.582634 
37 -0.449659 
38 -0.305917 
39 -0.154921 
Zone T= "4"
I=40 
0 -0.000451 
1 0.154775 
2 0.307388 
3 0.451742 
4 0.583749 
5 0.701341 
6 0.801756 
7 0.883336 
8 0.944367 
9 0.982884 
10 0.997588 
11 0.987897 
12 0.954145 
13 0.896335 
14 0.815450 
15 0.714105 
16 0.594547 
17 0.459315 
18 0.314017 
19 0.164177 
20 0.007966 
21 -0.154218 
22 -0.312145 
23 -0.459463 
24 -0.594445 
25 -0.715254 
26 -0.818020 
27 -0.898957 
28 -0.957025 
29 -0.991439 
30 -1.001352 
31 -0.986594 
32 -0.948065 
33 -0.886474 
34 -0.803214 
35 -0.700608 
36 -0.581379 
37 -0.448598 
38 -0.305162 
39 -0.154564 
Zone T= "5"
I=40 
0 -0.000515 
1 0.154464 
2 0.307046 
3 0.451299 
4 0.582978 
5 0.700206 
6 0.800367 
7 0.881836 
8 0.943011 
9 0.981921 
10 0.997075 
11 0.987883 
12 0.954725 
13 0.897379 
14 0.816713 
15 0.715516 
16 0.595933 
17 0.460391 
18 0.315051 
19 0.165679 
20 0.009501 
21 -0.153715 
22 -0.312790 
23 -0.460573 
24 -0.595782 
25 -0.716929 
26 -0.819813 
27 -0.900505 
28 -0.958187 
29 -0.992164 
30 -1.001579 
31 -0.986360 
32 -0.947461 
33 -0.885561 
34 -0.802059 
35 -0.699328 
36 -0.580135 
37 -0.447547 
38 -0.304417 
39 -0.154211 
Zone T= "6"
I=40 
0 -0.000572 
1 0.154161 
2 0.306702 
3 0.450857 
4 0.582216 
5 0.699082 
6 0.798994 
7 0.880347 
8 0.941656 
9 0.980952 
10 0.996552 
11 0.987853 
12 0.955290 
13 0.898415 
14 0.817974 
15 0.716927 
16 0.597326 
17 0.461480 
18 0.316087 
19 0.167166 
20 0.011028 
21 -0.153208 
22 -0.313433 
23 -0.461689 
24 -0.597127 
25 -0.718612 
26 -0.821604 
27 -0.902041 
28 -0.959338 
29 -0.992878 
30 -1.001795 
31 -0.986119 
32 -0.946856 
33 -0.884647 
34 -0.800906 
35 -0.698056 
36 -0.578901 
37 -0.446505 
38 -0.303681 
39 -0.153863 
Zone T= "7"
I=40 
0 -0.000622 
1 0.153863 
2 0.306357 
3 0.450415 
4 0.581462 
5 0.697970 
6 0.797635 
7 0.878871 
8 0.940301 
9 0.979976 
10 0.996022 
11 0.987810 
12 0.955838 
13 0.899441 
14 0.819233 
15 0.718337 
16 0.598726 
17 0.462582 
18 0.317125 
19 0.168641 
20 0.012547 
21 -0.152698 
22 -0.314074 
23 -0.462811 
24 -0.598481 
25 -0.720304 
26 -0.823393 
27 -0.903564 
28 -0.960478 
29 -0.993583 
30 -1.001999 
31 -0.985872 
32 -0.946250 
33 -0.883732 
34 -0.799754 
35 -0.696791 
36 -0.577677 
37 -0.445473 
38 -0.302954 
39 -0.153519 
Zone T= "8"
I=40 
0 -0.000667 
1 0.153571 
2 0.306010 
3 0.449974 
4 0.580716 
5 0.696870 
6 0.796290 
7 0.877406 
8 0.938948 
9 0.978994 
10 0.995483 
11 0.987752 
12 0.956369 
13 0.900458 
14 0.820489 
15 0.719747 
16 0.600133 
17 0.463698 
18 0.318166 
19 0.170104 
20 0.014058 
21 -0.152185 
22 -0.314713 
23 -0.463938 
24 -0.599845 
25 -0.722002 
26 -0.825178 
27 -0.905076 
28 -0.961607 
29 -0.994277 
30 -1.002193 
31 -0.985618 
32 -0.945642 
33 -0.882815 
34 -0.798603 
35 -0.695536 
36 -0.576464 
37 -0.444449 
38 -0.302237 
39 -0.153179 
Zone T= "9"
I=40 
0 -0.000705 
1 0.153284 
2 0.305661 
3 0.449534 
4 0.579978 
5 0.695781 
6 0.794959 
7 0.875953 
8 0.937597 
9 0.978006 
10 0.994936 
11 0.987682 
12 0.956883 
13 0.901466 
14 0.821742 
15 0.721156 
16 0.601547 
17 0.464827 
18 0.319208 
19 0.171554 
20 0.015562 
21 -0.151669 
22 -0.315351 
23 -0.465071 
24 -0.601218 
25 -0.723707 
26 -0.826961 
27 -0.906576 
28 -0.962724 
29 -0.994961 
30 -1.002376 
31 -0.985358 
32 -0.945032 
33 -0.881897 
34 -0.797454 
35 -0.694288 
36 -0.575261 
37 -0.443434 
38 -0.301529 
39 -0.152842 
Zone T= "10"
I=40 
0 -0.000738 
1 0.153003 
2 0.305312 
3 0.449095 
4 0.579248 
5 0.694703 
6 0.793642 
7 0.874512 
8 0.936247 
9 0.977012 
10 0.994380 
11 0.987598 
12 0.957382 
13 0.902464 
14 0.822993 
15 0.722565 
16 0.602967 
17 0.465970 
18 0.320253 
19 0.172992 
20 0.017057 
21 -0.151151 
22 -0.315988 
23 -0.466209 
24 -0.602600 
25 -0.725418 
26 -0.828740 
27 -0.908065 
28 -0.963829 
29 -0.995634 
30 -1.002548 
31 -0.985092 
32 -0.944422 
33 -0.880978 
34 -0.796306 
35 -0.693049 
36 -0.574068 
37 -0.442428 
38 -0.300829 
39 -0.152509 
Zone T= "11"
I=40 
0 -0.000765 
1 0.152728 
2 0.304962 
3 0.448656 
4 0.578526 
5 0.693637 
6 0.792338 
7 0.873083 
8 0.934900 
9 0.976013 
10 0.993817 
11 0.987502 
12 0.957863 
13 0.903452 
14 0.824241 
15 0.723972 
16 0.604393 
17 0.467125 
18 0.321300 
19 0.174419 
20 0.018542 
21 -0.150632 
22 -0.316624 
23 -0.467354 
24 -0.603992 
25 -0.727135 
26 -0.830514 
27 -0.909542 
28 -0.964923 
29 -0.996297 
30 -1.002710 
31 -0.984819 
32 -0.943810 
33 -0.880058 
34 -0.795161 
35 -0.691818 
36 -0.572885 
37 -0.441430 
38 -0.300138 
39 -0.152180 
Zone T= "12"
I=40 
0 -0.000787 
1 0.152458 
2 0.304612 
3 0.448219 
4 0.577811 
5 0.692582 
6 0.791048 
7 0.871665 
8 0.933555 
9 0.975008 
10 0.993246 
11 0.987393 
12 0.958329 
13 0.904430 
14 0.825486 
15 0.725379 
16 0.605826 
17 0.468292 
18 0.322351 
19 0.175835 
20 0.020018 
21 -0.150112 
22 -0.317258 
23 -0.468505 
24 -0.605393 
25 -0.728857 
26 -0.832285 
27 -0.911008 
28 -0.966006 
29 -0.996950 
30 -1.002862 
31 -0.984541 
32 -0.943196 
33 -0.879136 
34 -0.794017 
35 -0.690596 
36 -0.571711 
37 -0.440441 
38 -0.299455 
39 -0.151853 
Zone T= "13"
I=40 
0 -0.000804 
1 0.152193 
2 0.304262 
3 0.447783 
4 0.577103 
5 0.691538 
6 0.789771 
7 0.870260 
8 0.932214 
9 0.973998 
10 0.992667 
11 0.987271 
12 0.958779 
13 0.905398 
14 0.826728 
15 0.726786 
16 0.607265 
17 0.469472 
18 0.323404 
19 0.177239 
20 0.021483 
21 -0.149592 
22 -0.317891 
23 -0.469662 
24 -0.606804 
25 -0.730584 
26 -0.834051 
27 -0.912463 
28 -0.967078 
29 -0.997592 
30 -1.003003 
31 -0.984256 
32 -0.942581 
33 -0.878214 
34 -0.792876 
35 -0.689381 
36 -0.570547 
37 -0.439460 
38 -0.298780 
39 -0.151530 
Zone T= "14"
I=40 
0 -0.000815 
1 0.151934 
2 0.303911 
3 0.447347 
4 0.576402 
5 0.690504 
6 0.788507 
7 0.868866 
8 0.930876 
9 0.972983 
10 0.992081 
11 0.987138 
12 0.959212 
13 0.906354 
14 0.827966 
15 0.728191 
16 0.608710 
17 0.470664 
18 0.324460 
19 0.178633 
20 0.022939 
21 -0.149072 
22 -0.318523 
23 -0.470825 
24 -0.608224 
25 -0.732315 
26 -0.835812 
27 -0.913907 
28 -0.968138 
29 -0.998224 
30 -1.003135 
31 -0.983966 
32 -0.941964 
33 -0.877291 
34 -0.791736 
35 -0.688175 
36 -0.569393 
37 -0.438486 
38 -0.298113 
39 -0.151209 
Zone T= "0"
I=40 
0 -0.000885 
1 0.151626 
2 0.303550 
3 0.446956 
4 0.575690 
5 0.689428 
6 0.787364 
7 0.867428 
8 0.929575 
9 0.971899 
10 0.991529 
11 0.987008 
12 0.959618 
13 0.907365 
14 0.829166 
15 0.729661 
16 0.610177 
17 0.471817 
18 0.325478 
19 0.179988 
20 0.024363 
21 -0.148525 
22 -0.319173 
23 -0.472028 
24 -0.609716 
25 -0.734081 
26 -0.837581 
27 -0.915378 
28 -0.969254 
29 -0.998893 
30 -1.003223 
31 -0.983590 
32 -0.941386 
33 -0.876290 
34 -0.790724 
35 -0.686977 
36 -0.568202 
37 -0.437533 
38 -0.297461 
39 -0.150863 
Zone T= "1"
I=40 
0 -0.000931 
1 0.151304 
2 0.303208 
3 0.446555 
4 0.574977 
5 0.688398 
6 0.786167 
7 0.866081 
8 0.928208 
9 0.970860 
10 0.990948 
11 0.986861 
12 0.960036 
13 0.908322 
14 0.830406 
15 0.731097 
16 0.611659 
17 0.472991 
18 0.326486 
19 0.181337 
20 0.025788 
21 -0.147999 
22 -0.319805 
23 -0.473248 
24 -0.611212 
25 -0.735853 
26 -0.839342 
27 -0.916838 
28 -0.970370 
29 -0.999535 
30 -1.003295 
31 -0.983251 
32 -0.940737 
33 -0.875368 
34 -0.789653 
35 -0.685810 
36 -0.567024 
37 -0.436578 
38 -0.296820 
39 -0.150530 
Zone T= "2"
I=40 
0 -0.000970 
1 0.150989 
2 0.302861 
3 0.446156 
4 0.574274 
5 0.687376 
6 0.784982 
7 0.864746 
8 0.926847 
9 0.969815 
10 0.990358 
11 0.986705 
12 0.960438 
13 0.909267 
14 0.831645 
15 0.732530 
16 0.613145 
17 0.474183 
18 0.327495 
19 0.182674 
20 0.027208 
21 -0.147477 
22 -0.320439 
23 -0.474470 
24 -0.612722 
25 -0.737627 
26 -0.841094 
27 -0.918294 
28 -0.971472 
29 -1.000158 
30 -1.003364 
31 -0.982906 
32 -0.940085 
33 -0.874454 
34 -0.788582 
35 -0.684644 
36 -0.565863 
37 -0.435628 
38 -0.296184 
39 -0.150206 
Zone T= "3"
I=40 
0 -0.001001 
1 0.150681 
2 0.302511 
3 0.445758 
4 0.573579 
5 0.686363 
6 0.783807 
7 0.863424 
8 0.925493 
9 0.968765 
10 0.989759 
11 0.986538 
12 0.960825 
13 0.910199 
14 0.832880 
15 0.733960 
16 0.614636 
17 0.475389 
18 0.328507 
19 0.184002 
20 0.028621 
21 -0.146959 
22 -0.321074 
23 -0.475698 
24 -0.614241 
25 -0.739403 
26 -0.842841 
27 -0.919744 
28 -0.972561 
29 -1.000766 
30 -1.003426 
31 -0.982555 
32 -0.939431 
33 -0.873543 
34 -0.787510 
35 -0.683484 
36 -0.564714 
37 -0.434685 
38 -0.295554 
39 -0.149887 
Zone T= "4"
I=40 
0 -0.001028 
1 0.150380 
2 0.302159 
3 0.445361 
4 0.572892 
5 0.685358 
6 0.782642 
7 0.862115 
8 0.924146 
9 0.967711 
10 0.989151 
11 0.986362 
12 0.961197 
13 0.911119 
14 0.834112 
15 0.735389 
16 0.616131 
17 0.476607 
18 0.329524 
19 0.185320 
20 0.030024 
21 -0.146442 
22 -0.321710 
23 -0.476932 
24 -0.615769 
25 -0.741180 
26 -0.844583 
27 -0.921186 
28 -0.973635 
29 -1.001360 
30 -1.003480 
31 -0.982200 
32 -0.938777 
33 -0.872634 
34 -0.786439 
35 -0.682329 
36 -0.563576 
37 -0.433750 
38 -0.294930 
39 -0.149572 
Zone T= "5"
I=40 
0 -0.001049 
1 0.150085 
2 0.301807 
3 0.444965 
4 0.572214 
5 0.684363 
6 0.781487 
7 0.860817 
8 0.922806 
9 0.966653 
10 0.988535 
11 0.986175 
12 0.961554 
13 0.912027 
14 0.835339 
15 0.736817 
16 0.617630 
17 0.477839 
18 0.330546 
19 0.186629 
20 0.031417 
21 -0.145926 
22 -0.322348 
23 -0.478175 
24 -0.617305 
25 -0.742958 
26 -0.846321 
27 -0.922619 
28 -0.974696 
29 -1.001942 
30 -1.003525 
31 -0.981841 
32 -0.938123 
33 -0.871727 
34 -0.785368 
35 -0.681181 
36 -0.562449 
37 -0.432822 
38 -0.294313 
39 -0.149262 
Zone T= "6"
I=40 
0 -0.001065 
1 0.149796 
2 0.301454 
3 0.444568 
4 0.571543 
5 0.683378 
6 0.780341 
7 0.859531 
8 0.921473 
9 0.965592 
10 0.987910 
11 0.985978 
12 0.961896 
13 0.912922 
14 0.836561 
15 0.738243 
16 0.619134 
17 0.479081 
18 0.331574 
19 0.187928 
20 0.032801 
21 -0.145411 
22 -0.322987 
23 -0.479425 
24 -0.618848 
25 -0.744738 
26 -0.848055 
27 -0.924042 
28 -0.975743 
29 -1.002510 
30 -1.003561 
31 -0.981477 
32 -0.937469 
33 -0.870820 
34 -0.784298 
35 -0.680039 
36 -0.561332 
37 -0.431902 
38 -0.293703 
39 -0.148955 
Zone T= "7"
I=40 
0 -0.001076 
1 0.149513 
2 0.301101 
3 0.444173 
4 0.570879 
5 0.682401 
6 0.779204 
7 0.858257 
8 0.920148 
9 0.964527 
10 0.987276 
11 0.985772 
12 0.962225 
13 0.913804 
14 0.837777 
15 0.739668 
16 0.620641 
17 0.480336 
18 0.332607 
19 0.189219 
20 0.034176 
21 -0.144897 
22 -0.323628 
23 -0.480684 
24 -0.620398 
25 -0.746519 
26 -0.849784 
27 -0.925456 
28 -0.976776 
29 -1.003067 
30 -1.003589 
31 -0.981109 
32 -0.936816 
33 -0.869914 
34 -0.783230 
35 -0.678905 
36 -0.560225 
37 -0.430989 
38 -0.293099 
39 -0.148651 
Zone T= "8"
I=40 
0 -0.001083 
1 0.149235 
2 0.300747 
3 0.443777 
4 0.570223 
5 0.681434 
6 0.778076 
7 0.856995 
8 0.918830 
9 0.963459 
10 0.986634 
11 0.985555 
12 0.962539 
13 0.914673 
14 0.838989 
15 0.741092 
16 0.622153 
17 0.481601 
18 0.333646 
19 0.190501 
20 0.035541 
21 -0.144383 
22 -0.324271 
23 -0.481951 
24 -0.621954 
25 -0.748301 
26 -0.851510 
27 -0.926859 
28 -0.977797 
29 -1.003611 
30 -1.003609 
31 -0.980738 
32 -0.936163 
33 -0.869009 
34 -0.782162 
35 -0.677776 
36 -0.559127 
37 -0.430084 
38 -0.292501 
39 -0.148351 
Zone T= "9"
I=40 
0 -0.001086 
1 0.148964 
2 0.300393 
3 0.443382 
4 0.569573 
5 0.680476 
6 0.776958 
7 0.855744 
8 0.917520 
9 0.962388 
10 0.985985 
11 0.985328 
12 0.962840 
13 0.915530 
14 0.840194 
15 0.742514 
16 0.623668 
17 0.482877 
18 0.334691 
19 0.191776 
20 0.036896 
21 -0.143871 
22 -0.324916 
23 -0.483226 
24 -0.623518 
25 -0.750084 
26 -0.853231 
27 -0.928253 
28 -0.978803 
29 -1.004144 
30 -1.003620 
31 -0.980363 
32 -0.935511 
33 -0.868104 
34 -0.781095 
35 -0.676655 
36 -0.558039 
37 -0.429187 
38 -0.291910 
39 -0.148054 
Zone T= "10"
I=40 
0 -0.001085 
1 0.148698 
2 0.300039 
3 0.442987 
4 0.568931 
5 0.679527 
6 0.775848 
7 0.854503 
8 0.916217 
9 0.961316 
10 0.985327 
11 0.985091 
12 0.963126 
13 0.916374 
14 0.841393 
15 0.743934 
16 0.625187 
17 0.484164 
18 0.335741 
19 0.193043 
20 0.038243 
21 -0.143360 
22 -0.325563 
23 -0.484509 
24 -0.625088 
25 -0.751867 
26 -0.854948 
27 -0.929636 
28 -0.979797 
29 -1.004665 
30 -1.003623 
31 -0.979984 
32 -0.934859 
33 -0.867200 
34 -0.780029 
35 -0.675540 
36 -0.556961 
37 -0.428297 
38 -0.291325 
39 -0.147760 
Zone T= "11"
I=40 
0 -0.001080 
1 0.148437 
2 0.299685 
3 0.442592 
4 0.568295 
5 0.678586 
6 0.774746 
7 0.853274 
8 0.914922 
9 0.960241 
10 0.984662 
11 0.984844 
12 0.963399 
13 0.917206 
14 0.842586 
15 0.745353 
16 0.626709 
17 0.485461 
18 0.336797 
19 0.194302 
20 0.039580 
21 -0.142851 
22 -0.326213 
23 -0.485800 
24 -0.626665 
25 -0.753651 
26 -0.856659 
27 -0.931010 
28 -0.980778 
29 -1.005175 
30 -1.003619 
31 -0.979602 
32 -0.934207 
33 -0.866295 
34 -0.778964 
35 -0.674431 
36 -0.555892 
37 -0.427415 
38 -0.290746 
39 -0.147469 
Zone T= "12"
I=40 
0 -0.001072 
1 0.148182 
2 0.299332 
3 0.442198 
4 0.567666 
5 0.677655 
6 0.773654 
7 0.852056 
8 0.913635 
9 0.959165 
10 0.983989 
11 0.984587 
12 0.963659 
13 0.918025 
14 0.843773 
15 0.746770 
16 0.628236 
17 0.486768 
18 0.337859 
19 0.195555 
20 0.040909 
21 -0.142343 
22 -0.326865 
23 -0.487100 
24 -0.628248 
25 -0.755434 
26 -0.858366 
27 -0.932373 
28 -0.981747 
29 -1.005674 
30 -1.003607 
31 -0.979216 
32 -0.933555 
33 -0.865392 
34 -0.777901 
35 -0.673330 
36 -0.554833 
37 -0.426540 
38 -0.290172 
39 -0.147181 
Zone T= "13"
I=40 
0 -0.001060 
1 0.147932 
2 0.298979 
3 0.441804 
4 0.567044 
5 0.676732 
6 0.772569 
7 0.850848 
8 0.912356 
9 0.958088 
10 0.983309 
11 0.984320 
12 0.963905 
13 0.918831 
14 0.844953 
15 0.748185 
16 0.629765 
17 0.488086 
18 0.338927 
19 0.196801 
20 0.042228 
21 -0.141837 
22 -0.327520 
23 -0.488408 
24 -0.629837 
25 -0.757218 
26 -0.860067 
27 -0.933726 
28 -0.982703 
29 -1.006162 
30 -1.003588 
31 -0.978828 
32 -0.932903 
33 -0.864488 
34 -0.776840 
35 -0.672234 
36 -0.553782 
37 -0.425672 
38 -0.289604 
39 -0.146895 
Zone T= "14"
I=40 
0 -0.001044 
1 0.147688 
2 0.298626 
3 0.441411 
4 0.566428 
5 0.675818 
6 0.771493 
7 0.849651 
8 0.911085 
9 0.957009 
10 0.982622 
11 0.984044 
12 0.964138 
13 0.919625 
14 0.846126 
15 0.749598 
16 0.631298 
17 0.489413 
18 0.340001 
19 0.198040 
20 0.043540 
21 -0.141334 
22 -0.328177 
23 -0.489724 
24 -0.631433 
25 -0.759002 
26 -0.861763 
27 -0.935069 
28 -0.983647 
29 -1.006639 
30 -1.003561 
31 -0.978436 
32 -0.932251 
33 -0.863585 
34 -0.775780 
35 -0.671146 
36 -0.552741 
37 -0.424811 
38 -0.289041 
39 -0.146613 
Zone T= "0"
I=40 
0 -0.001063 
1 0.147495 
2 0.298278 
3 0.441004 
4 0.565821 
5 0.674877 
6 0.770390 
7 0.848498 
8 0.909761 
9 0.955950 
10 0.981907 
11 0.983828 
12 0.964312 
13 0.920499 
14 0.847352 
15 0.751025 
16 0.632824 
17 0.490752 
18 0.341078 
19 0.199201 
20 0.044888 
21 -0.140903 
22 -0.328846 
23 -0.490989 
24 -0.633031 
25 -0.760779 
26 -0.863312 
27 -0.936413 
28 -0.984605 
29 -1.007180 
30 -1.003456 
31 -0.978091 
32 -0.931578 
33 -0.862741 
34 -0.774743 
35 -0.670140 
36 -0.551701 
37 -0.423867 
38 -0.288555 
39 -0.146326 
Zone T= "1"
I=40 
0 -0.001031 
1 0.147282 
2 0.297927 
3 0.440615 
4 0.565206 
5 0.673944 
6 0.769315 
7 0.847324 
8 0.908483 
9 0.954848 
10 0.981230 
11 0.983552 
12 0.964519 
13 0.921325 
14 0.848589 
15 0.752441 
16 0.634357 
17 0.492108 
18 0.342133 
19 0.200405 
20 0.046176 
21 -0.140444 
22 -0.329519 
23 -0.492277 
24 -0.634629 
25 -0.762533 
26 -0.864897 
27 -0.937704 
28 -0.985593 
29 -1.007665 
30 -1.003387 
31 -0.977697 
32 -0.930954 
33 -0.861855 
34 -0.773736 
35 -0.669127 
36 -0.550659 
37 -0.422964 
38 -0.288025 
39 -0.146098 
Zone T= "2"
I=40 
0 -0.000995 
1 0.147073 
2 0.297576 
3 0.440230 
4 0.564597 
5 0.673017 
6 0.768248 
7 0.846160 
8 0.907211 
9 0.953748 
10 0.980547 
11 0.983264 
12 0.964717 
13 0.922137 
14 0.849813 
15 0.753861 
16 0.635896 
17 0.493465 
18 0.343201 
19 0.201605 
20 0.047446 
21 -0.139982 
22 -0.330191 
23 -0.493581 
24 -0.636229 
25 -0.764281 
26 -0.866484 
27 -0.938987 
28 -0.986566 
29 -1.008139 
30 -1.003310 
31 -0.977301 
32 -0.930331 
33 -0.860969 
34 -0.772732 
35 -0.668121 
36 -0.549624 
37 -0.422069 
38 -0.287501 
39 -0.145870 
Zone T= "3"
I=40 
0 -0.000955 
1 0.146867 
2 0.297225 
3 0.439845 
4 0.563995 
5 0.672097 
6 0.767190 
7 0.845006 
8 0.905946 
9 0.952650 
10 0.979857 
11 0.982965 
12 0.964904 
13 0.922935 
14 0.851026 
15 0.755283 
16 0.637438 
17 0.494828 
18 0.344277 
19 0.202802 
20 0.048704 
21 -0.139521 
22 -0.330863 
23 -0.494896 
24 -0.637834 
25 -0.766024 
26 -0.868069 
27 -0.940264 
28 -0.987524 
29 -1.008601 
30 -1.003227 
31 -0.976904 
32 -0.929709 
33 -0.860084 
34 -0.771729 
35 -0.667119 
36 -0.548596 
37 -0.421183 
38 -0.286984 
39 -0.145642 
Zone T= "4"
I=40 
0 -0.000913 
1 0.146666 
2 0.296875 
3 0.439462 
4 0.563399 
5 0.671186 
6 0.766140 
7 0.843862 
8 0.904690 
9 0.951552 
10 0.979159 
11 0.982656 
12 0.965080 
13 0.923719 
14 0.852230 
15 0.756705 
16 0.638984 
17 0.496198 
18 0.345363 
19 0.203994 
20 0.049950 
21 -0.139062 
22 -0.331537 
23 -0.496222 
24 -0.639442 
25 -0.767764 
26 -0.869652 
27 -0.941535 
28 -0.988467 
29 -1.009050 
30 -1.003138 
31 -0.976505 
32 -0.929087 
33 -0.859199 
34 -0.770729 
35 -0.666122 
36 -0.547577 
37 -0.420306 
38 -0.286471 
39 -0.145416 
Zone T= "5"
I=40 
0 -0.000867 
1 0.146468 
2 0.296526 
3 0.439079 
4 0.562809 
5 0.670283 
6 0.765098 
7 0.842727 
8 0.903442 
9 0.950455 
10 0.978454 
11 0.982339 
12 0.965244 
13 0.924487 
14 0.853424 
15 0.758127 
16 0.640534 
17 0.497575 
18 0.346456 
19 0.205183 
20 0.051185 
21 -0.138604 
22 -0.332212 
23 -0.497558 
24 -0.641056 
25 -0.769499 
26 -0.871232 
27 -0.942799 
28 -0.989396 
29 -1.009486 
30 -1.003045 
31 -0.976105 
32 -0.928464 
33 -0.858315 
34 -0.769731 
35 -0.665129 
36 -0.546565 
37 -0.419438 
38 -0.285964 
39 -0.145190 
Zone T= "6"
I=40 
0 -0.000819 
1 0.146274 
2 0.296178 
3 0.438697 
4 0.562225 
5 0.669389 
6 0.764063 
7 0.841601 
8 0.902204 
9 0.949359 
10 0.977743 
11 0.982012 
12 0.965397 
13 0.925241 
14 0.854609 
15 0.759548 
16 0.642086 
17 0.498959 
18 0.347556 
19 0.206368 
20 0.052411 
21 -0.138149 
22 -0.332891 
23 -0.498904 
24 -0.642673 
25 -0.771230 
26 -0.872808 
27 -0.944057 
28 -0.990311 
29 -1.009909 
30 -1.002947 
31 -0.975704 
32 -0.927839 
33 -0.857433 
34 -0.768737 
35 -0.664140 
36 -0.545560 
37 -0.418579 
38 -0.285462 
39 -0.144965 
Zone T= "7"
I=40 
0 -0.000769 
1 0.146084 
2 0.295832 
3 0.438315 
4 0.561646 
5 0.668504 
6 0.763035 
7 0.840484 
8 0.900975 
9 0.948264 
10 0.977024 
11 0.981677 
12 0.965538 
13 0.925981 
14 0.855784 
15 0.760968 
16 0.643642 
17 0.500352 
18 0.348664 
19 0.207550 
20 0.053627 
21 -0.137696 
22 -0.333573 
23 -0.500258 
24 -0.644296 
25 -0.772958 
26 -0.874381 
27 -0.945309 
28 -0.991211 
29 -1.010320 
30 -1.002845 
31 -0.975301 
32 -0.927214 
33 -0.856552 
34 -0.767745 
35 -0.663155 
36 -0.544564 
37 -0.417728 
38 -0.284965 
39 -0.144740 
Zone T= "8"
I=40 
0 -0.000717 
1 0.145897 
2 0.295487 
3 0.437934 
4 0.561073 
5 0.667627 
6 0.762014 
7 0.839375 
8 0.899755 
9 0.947171 
10 0.976299 
11 0.981334 
12 0.965668 
13 0.926706 
14 0.856950 
15 0.762386 
16 0.645200 
17 0.501752 
18 0.349780 
19 0.208728 
20 0.054834 
21 -0.137247 
22 -0.334259 
23 -0.501622 
24 -0.645922 
25 -0.774683 
26 -0.875949 
27 -0.946553 
28 -0.992097 
29 -1.010718 
30 -1.002738 
31 -0.974897 
32 -0.926587 
33 -0.855673 
34 -0.766756 
35 -0.662174 
36 -0.543575 
37 -0.416886 
38 -0.284471 
39 -0.144517 
Zone T= "9"
I=40 
0 -0.000663 
1 0.145715 
2 0.295144 
3 0.437554 
4 0.560505 
5 0.666758 
6 0.761000 
7 0.838275 
8 0.898544 
9 0.946079 
10 0.975568 
11 0.980982 
12 0.965787 
13 0.927416 
14 0.858107 
15 0.763802 
16 0.646761 
17 0.503159 
18 0.350902 
19 0.209903 
20 0.056034 
21 -0.136800 
22 -0.334950 
23 -0.502995 
24 -0.647552 
25 -0.776404 
26 -0.877514 
27 -0.947790 
28 -0.992969 
29 -1.011104 
30 -1.002628 
31 -0.974491 
32 -0.925959 
33 -0.854795 
34 -0.765770 
35 -0.661198 
36 -0.542594 
37 -0.416053 
38 -0.283982 
39 -0.144293 
Zone T= "10"
I=40 
0 -0.000607 
1 0.145536 
2 0.294802 
3 0.437174 
4 0.559942 
5 0.665898 
6 0.759993 
7 0.837183 
8 0.897342 
9 0.944990 
10 0.974830 
11 0.980622 
12 0.965894 
13 0.928113 
14 0.859254 
15 0.765216 
16 0.648325 
17 0.504575 
18 0.352031 
19 0.211075 
20 0.057225 
21 -0.136357 
22 -0.335644 
23 -0.504376 
24 -0.649186 
25 -0.778121 
26 -0.879075 
27 -0.949019 
28 -0.993826 
29 -1.011478 
30 -1.002514 
31 -0.974084 
32 -0.925329 
33 -0.853918 
34 -0.764787 
35 -0.660225 
36 -0.541621 
37 -0.415227 
38 -0.283498 
39 -0.144071 
Zone T= "11"
I=40 
0 -0.000549 
1 0.145360 
2 0.294463 
3 0.436795 
4 0.559385 
5 0.665046 
6 0.758994 
7 0.836098 
8 0.896149 
9 0.943902 
10 0.974087 
11 0.980254 
12 0.965990 
13 0.928795 
14 0.860391 
15 0.766628 
16 0.649891 
17 0.505997 
18 0.353168 
19 0.212244 
20 0.058409 
21 -0.135918 
22 -0.336343 
23 -0.505766 
24 -0.650824 
25 -0.779835 
26 -0.880632 
27 -0.950241 
28 -0.994669 
29 -1.011841 
30 -1.002397 
31 -0.973675 
32 -0.924698 
33 -0.853043 
34 -0.763806 
35 -0.659257 
36 -0.540656 
37 -0.414411 
38 -0.283017 
39 -0.143849 
Zone T= "12"
I=40 
0 -0.000490 
1 0.145189 
2 0.294125 
3 0.436416 
4 0.558832 
5 0.664203 
6 0.758001 
7 0.835022 
8 0.894964 
9 0.942816 
10 0.973338 
11 0.979877 
12 0.966074 
13 0.929463 
14 0.861518 
15 0.768036 
16 0.651459 
17 0.507428 
18 0.354311 
19 0.213410 
20 0.059585 
21 -0.135483 
22 -0.337047 
23 -0.507165 
24 -0.652465 
25 -0.781545 
26 -0.882184 
27 -0.951454 
28 -0.995499 
29 -1.012193 
30 -1.002276 
31 -0.973265 
32 -0.924065 
33 -0.852169 
34 -0.762828 
35 -0.658292 
36 -0.539699 
37 -0.413602 
38 -0.282540 
39 -0.143627 
Zone T= "13"
I=40 
0 -0.000429 
1 0.145020 
2 0.293788 
3 0.436038 
4 0.558284 
5 0.663367 
6 0.757015 
7 0.833954 
8 0.893789 
9 0.941733 
10 0.972584 
11 0.979492 
12 0.966148 
13 0.930117 
14 0.862635 
15 0.769442 
16 0.653030 
17 0.508865 
18 0.355460 
19 0.214574 
20 0.060755 
21 -0.135051 
22 -0.337756 
23 -0.508572 
24 -0.654109 
25 -0.783253 
26 -0.883732 
27 -0.952659 
28 -0.996314 
29 -1.012534 
30 -1.002152 
31 -0.972852 
32 -0.923431 
33 -0.851297 
34 -0.761853 
35 -0.657332 
36 -0.538749 
37 -0.412801 
38 -0.282066 
39 -0.143407 
Zone T= "14"
I=40 
0 -0.000366 
1 0.144856 
2 0.293454 
3 0.435661 
4 0.557741 
5 0.662540 
6 0.756037 
7 0.832893 
8 0.892622 
9 0.940653 
10 0.971826 
11 0.979100 
12 0.966211 
13 0.930757 
14 0.863741 
15 0.770844 
16 0.654603 
17 0.510310 
18 0.356617 
19 0.215736 
20 0.061917 
21 -0.134623 
22 -0.338469 
23 -0.509988 
24 -0.655757 
25 -0.784957 
26 -0.885275 
27 -0.953856 
28 -0.997115 
29 -1.012866 
30 -1.002024 
31 -0.972438 
32 -0.922796 
33 -0.850426 
34 -0.760880 
35 -0.656376 
36 -0.537807 
37 -0.412008 
38 -0.281597 
39 -0.143187 
Zone T= "0"
I=40 
0 -0.000298 
1 0.144621 
2 0.293207 
3 0.435260 
4 0.557241 
5 0.661716 
6 0.754998 
7 0.831906 
8 0.891491 
9 0.939610 
10 0.971023 
11 0.978705 
12 0.966367 
13 0.931399 
14 0.864888 
15 0.772219 
16 0.656230 
17 0.511798 
18 0.357853 
19 0.216874 
20 0.063036 
21 -0.134210 
22 -0.339273 
23 -0.511513 
24 -0.657350 
25 -0.786647 
26 -0.886850 
27 -0.955012 
28 -0.997936 
29 -1.013193 
30 -1.001921 
31 -0.971994 
32 -0.922155 
33 -0.849481 
34 -0.759869 
35 -0.655396 
36 -0.536928 
37 -0.411238 
38 -0.281080 
39 -0.142933 
Zone T= "1"
I=40 
0 -0.000260 
1 0.144448 
2 0.292899 
3 0.434907 
4 0.556727 
5 0.660892 
6 0.753998 
7 0.830884 
8 0.890404 
9 0.938547 
10 0.970225 
11 0.978313 
12 0.966479 
13 0.932068 
14 0.865990 
15 0.773621 
16 0.657831 
17 0.513318 
18 0.359076 
19 0.218018 
20 0.064157 
21 -0.133813 
22 -0.340086 
23 -0.513021 
24 -0.658976 
25 -0.788322 
26 -0.888408 
27 -0.956188 
28 -0.998711 
29 -1.013536 
30 -1.001798 
31 -0.971563 
32 -0.921491 
33 -0.848561 
34 -0.758844 
35 -0.654434 
36 -0.536045 
37 -0.410483 
38 -0.280562 
39 -0.142672 
Zone T= "2"
I=40 
0 -0.000218 
1 0.144280 
2 0.292589 
3 0.434555 
4 0.556217 
5 0.660075 
6 0.753006 
7 0.829866 
8 0.889325 
9 0.937490 
10 0.969425 
11 0.977912 
12 0.966577 
13 0.932725 
14 0.867085 
15 0.775015 
16 0.659434 
17 0.514846 
18 0.360300 
19 0.219163 
20 0.065276 
21 -0.133428 
22 -0.340902 
23 -0.514530 
24 -0.660611 
25 -0.789994 
26 -0.889958 
27 -0.957361 
28 -0.999470 
29 -1.013867 
30 -1.001676 
31 -0.971125 
32 -0.920823 
33 -0.847647 
34 -0.757820 
35 -0.653477 
36 -0.535173 
37 -0.409729 
38 -0.280047 
39 -0.142419 
Zone T= "3"
I=40 
0 -0.000172 
1 0.144116 
2 0.292279 
3 0.434205 
4 0.555713 
5 0.659266 
6 0.752022 
7 0.828854 
8 0.888252 
9 0.936438 
10 0.968623 
11 0.977501 
12 0.966661 
13 0.933370 
14 0.868172 
15 0.776403 
16 0.661039 
17 0.516382 
18 0.361529 
19 0.220310 
20 0.066391 
21 -0.133052 
22 -0.341723 
23 -0.516042 
24 -0.662251 
25 -0.791663 
26 -0.891501 
27 -0.958527 
28 -1.000216 
29 -1.014187 
30 -1.001553 
31 -0.970683 
32 -0.920153 
33 -0.846739 
34 -0.756799 
35 -0.652526 
36 -0.534310 
37 -0.408979 
38 -0.279536 
39 -0.142170 
Zone T= "4"
I=40 
0 -0.000123 
1 0.143957 
2 0.291969 
3 0.433855 
4 0.555213 
5 0.658465 
6 0.751046 
7 0.827847 
8 0.887186 
9 0.935392 
10 0.967819 
11 0.977081 
12 0.966731 
13 0.934004 
14 0.869251 
15 0.777786 
16 0.662645 
17 0.517925 
18 0.362763 
19 0.221457 
20 0.067501 
21 -0.132684 
22 -0.342548 
23 -0.517557 
24 -0.663896 
25 -0.793331 
26 -0.893037 
27 -0.959684 
28 -1.000949 
29 -1.014498 
30 -1.001426 
31 -0.970238 
32 -0.919481 
33 -0.845833 
34 -0.755782 
35 -0.651580 
36 -0.533454 
37 -0.408234 
38 -0.279029 
39 -0.141924 
Zone T= "5"
I=40 
0 -0.000073 
1 0.143801 
2 0.291661 
3 0.433505 
4 0.554718 
5 0.657673 
6 0.750077 
7 0.826845 
8 0.886126 
9 0.934352 
10 0.967015 
11 0.976651 
12 0.966788 
13 0.934625 
14 0.870320 
15 0.779164 
16 0.664251 
17 0.519473 
18 0.364003 
19 0.222606 
20 0.068604 
21 -0.132322 
22 -0.343379 
23 -0.519078 
24 -0.665544 
25 -0.794997 
26 -0.894567 
27 -0.960831 
28 -1.001670 
29 -1.014800 
30 -1.001296 
31 -0.969789 
32 -0.918807 
33 -0.844930 
34 -0.754770 
35 -0.650641 
36 -0.532605 
37 -0.407492 
38 -0.278527 
39 -0.141680 
Zone T= "6"
I=40 
0 -0.000020 
1 0.143650 
2 0.291353 
3 0.433155 
4 0.554226 
5 0.656890 
6 0.749115 
7 0.825848 
8 0.885072 
9 0.933317 
10 0.966209 
11 0.976212 
12 0.966833 
13 0.935235 
14 0.871381 
15 0.780537 
16 0.665858 
17 0.521028 
18 0.365250 
19 0.223756 
20 0.069703 
21 -0.131967 
22 -0.344214 
23 -0.520602 
24 -0.667195 
25 -0.796662 
26 -0.896092 
27 -0.961968 
28 -1.002379 
29 -1.015093 
30 -1.001162 
31 -0.969337 
32 -0.918131 
33 -0.844029 
34 -0.753763 
35 -0.649707 
36 -0.531762 
37 -0.406756 
38 -0.278028 
39 -0.141439 
Zone T= "7"
I=40 
0 0.000035 
1 0.143503 
2 0.291048 
3 0.432805 
4 0.553739 
5 0.656115 
6 0.748160 
7 0.824856 
8 0.884025 
9 0.932287 
10 0.965402 
11 0.975765 
12 0.966864 
13 0.935832 
14 0.872433 
15 0.781905 
16 0.667465 
17 0.522588 
18 0.366504 
19 0.224907 
20 0.070795 
21 -0.131618 
22 -0.345055 
23 -0.522132 
24 -0.668849 
25 -0.798325 
26 -0.897610 
27 -0.963095 
28 -1.003076 
29 -1.015379 
30 -1.001024 
31 -0.968882 
32 -0.917455 
33 -0.843130 
34 -0.752760 
35 -0.648780 
36 -0.530924 
37 -0.406025 
38 -0.277533 
39 -0.141200 
Zone T= "8"
I=40 
0 0.000092 
1 0.143360 
2 0.290744 
3 0.432455 
4 0.553256 
5 0.655348 
6 0.747213 
7 0.823870 
8 0.882983 
9 0.931263 
10 0.964595 
11 0.975309 
12 0.966882 
13 0.936416 
14 0.873475 
15 0.783268 
16 0.669072 
17 0.524154 
18 0.367765 
19 0.226058 
20 0.071882 
21 -0.131277 
22 -0.345901 
23 -0.523666 
24 -0.670506 
25 -0.799987 
26 -0.899121 
27 -0.964211 
28 -1.003762 
29 -1.015657 
30 -1.000882 
31 -0.968424 
32 -0.916776 
33 -0.842234 
34 -0.751762 
35 -0.647859 
36 -0.530093 
37 -0.405299 
38 -0.277043 
39 -0.140964 
Zone T= "9"
I=40 
0 0.000150 
1 0.143220 
2 0.290441 
3 0.432106 
4 0.552777 
5 0.654590 
6 0.746273 
7 0.822889 
8 0.881948 
9 0.930244 
10 0.963787 
11 0.974845 
12 0.966888 
13 0.936988 
14 0.874508 
15 0.784625 
16 0.670678 
17 0.525726 
18 0.369034 
19 0.227211 
20 0.072963 
21 -0.130942 
22 -0.346753 
23 -0.525205 
24 -0.672165 
25 -0.801647 
26 -0.900626 