VARIABLES = "x", "y" 
Zone T= "0"
I=40 
0 0.003333 
1 0.158686 
2 0.303623 
3 0.454478 
4 0.587755 
5 0.706873 
6 0.808913 
7 0.891348 
8 0.952115 
9 0.989663 
10 0.996333 
11 0.985055 
12 0.956031 
13 0.890925 
14 0.808582 
15 0.706869 
16 0.587424 
17 0.453201 
18 0.314205 
19 0.154078 
20 0.003333 
21 -0.158557 
22 -0.307539 
23 -0.453201 
24 -0.587424 
25 -0.706869 
26 -0.808582 
27 -0.890071 
28 -0.949364 
29 -0.991722 
30 -1.003000 
31 -0.989663 
32 -0.945448 
33 -0.891348 
34 -0.808913 
35 -0.706873 
36 -0.587755 
37 -0.454478 
38 -0.310289 
39 -0.158686 
Zone T= "1"
I=40 
0 0.006301 
1 0.159911 
2 0.300335 
3 0.453008 
4 0.588583 
5 0.706804 
6 0.808438 
7 0.891430 
8 0.954053 
9 0.990729 
10 0.992973 
11 0.983354 
12 0.959114 
13 0.892317 
14 0.807754 
15 0.706552 
16 0.586699 
17 0.453926 
18 0.316618 
19 0.155085 
20 0.003541 
21 -0.158321 
22 -0.307356 
23 -0.452085 
24 -0.586748 
25 -0.707132 
26 -0.807918 
27 -0.888689 
28 -0.948872 
29 -0.994418 
30 -1.007545 
31 -0.989586 
32 -0.941702 
33 -0.890392 
34 -0.809517 
35 -0.706550 
36 -0.587577 
37 -0.454818 
38 -0.312320 
39 -0.159897 
Zone T= "2"
I=40 
0 0.008857 
1 0.161041 
2 0.297586 
3 0.451137 
4 0.589316 
5 0.707166 
6 0.807589 
7 0.891509 
8 0.956246 
9 0.991476 
10 0.989914 
11 0.981785 
12 0.961607 
13 0.894001 
14 0.807191 
15 0.705840 
16 0.586205 
17 0.454716 
18 0.318712 
19 0.156341 
20 0.003752 
21 -0.158250 
22 -0.306956 
23 -0.451079 
24 -0.586131 
25 -0.707242 
26 -0.807374 
27 -0.887212 
28 -0.948470 
29 -0.997439 
30 -1.011705 
31 -0.989339 
32 -0.938243 
33 -0.889248 
34 -0.810226 
35 -0.706378 
36 -0.587066 
37 -0.455435 
38 -0.314430 
39 -0.160640 
Zone T= "3"
I=40 
0 0.011176 
1 0.162115 
2 0.295148 
3 0.449079 
4 0.589946 
5 0.707747 
6 0.806607 
7 0.891534 
8 0.958517 
9 0.992143 
10 0.987059 
11 0.980229 
12 0.963747 
13 0.895836 
14 0.806814 
15 0.704942 
16 0.585796 
17 0.455538 
18 0.320647 
19 0.157705 
20 0.003987 
21 -0.158248 
22 -0.306463 
23 -0.450112 
24 -0.585550 
25 -0.707288 
26 -0.806846 
27 -0.885697 
28 -0.948207 
29 -1.000648 
30 -1.015590 
31 -0.988931 
32 -0.934952 
33 -0.888075 
34 -0.810974 
35 -0.706249 
36 -0.586426 
37 -0.456206 
38 -0.316541 
39 -0.161142 
Zone T= "4"
I=40 
0 0.013342 
1 0.163154 
2 0.292911 
3 0.446938 
4 0.590475 
5 0.708441 
6 0.805603 
7 0.891489 
8 0.960776 
9 0.992834 
10 0.984369 
11 0.978630 
12 0.965642 
13 0.897755 
14 0.806577 
15 0.703962 
16 0.585409 
17 0.456375 
18 0.322498 
19 0.159114 
20 0.004252 
21 -0.158273 
22 -0.305929 
23 -0.449159 
24 -0.584997 
25 -0.707305 
26 -0.806290 
27 -0.884179 
28 -0.948102 
29 -1.003976 
30 -1.019252 
31 -0.988366 
32 -0.931772 
33 -0.886947 
34 -0.811728 
35 -0.706115 
36 -0.585753 
37 -0.457071 
38 -0.318615 
39 -0.161510 
Zone T= "5"
I=40 
0 0.015397 
1 0.164166 
2 0.290817 
3 0.444765 
4 0.590907 
5 0.709195 
6 0.804628 
7 0.891374 
8 0.962979 
9 0.993595 
10 0.981828 
11 0.976968 
12 0.967345 
13 0.899726 
14 0.806460 
15 0.702949 
16 0.585017 
17 0.457213 
18 0.324297 
19 0.160542 
20 0.004547 
21 -0.158305 
22 -0.305377 
23 -0.448208 
24 -0.584468 
25 -0.707307 
26 -0.805686 
27 -0.882677 
28 -0.948161 
29 -1.007385 
30 -1.022713 
31 -0.987653 
32 -0.928683 
33 -0.885894 
34 -0.812470 
35 -0.705957 
36 -0.585093 
37 -0.457999 
38 -0.320636 
39 -0.161799 
Zone T= "6"
I=40 
0 0.017363 
1 0.165157 
2 0.288838 
3 0.442585 
4 0.591247 
5 0.709980 
6 0.803707 
7 0.891193 
8 0.965105 
9 0.994441 
10 0.979433 
11 0.975237 
12 0.968879 
13 0.901730 
14 0.806449 
15 0.701927 
16 0.584607 
17 0.458046 
18 0.326064 
19 0.161978 
20 0.004870 
21 -0.158334 
22 -0.304814 
23 -0.447255 
24 -0.583961 
25 -0.707297 
26 -0.805029 
27 -0.881204 
28 -0.948384 
29 -1.010851 
30 -1.025984 
31 -0.986799 
32 -0.925675 
33 -0.884929 
34 -0.813190 
35 -0.705767 
36 -0.584470 
37 -0.458972 
38 -0.322597 
39 -0.162033 
Zone T= "7"
I=40 
0 0.019251 
1 0.166129 
2 0.286958 
3 0.440411 
4 0.591499 
5 0.710779 
6 0.802850 
7 0.890951 
8 0.967141 
9 0.995372 
10 0.977181 
11 0.973441 
12 0.970255 
13 0.903755 
14 0.806537 
15 0.700910 
16 0.584177 
17 0.458869 
18 0.327805 
19 0.163417 
20 0.005220 
21 -0.158357 
22 -0.304246 
23 -0.446302 
24 -0.583474 
25 -0.707274 
26 -0.804318 
27 -0.879769 
28 -0.948771 
29 -1.014360 
30 -1.029069 
31 -0.985813 
32 -0.922748 
33 -0.884054 
34 -0.813883 
35 -0.705544 
36 -0.583891 
37 -0.459980 
38 -0.324497 
39 -0.162229 
Zone T= "8"
I=40 
0 0.021070 
1 0.167084 
2 0.285168 
3 0.438250 
4 0.591667 
5 0.711582 
6 0.802060 
7 0.890657 
8 0.969082 
9 0.996384 
10 0.975073 
11 0.971585 
12 0.971479 
13 0.905791 
14 0.806721 
15 0.699908 
16 0.583724 
17 0.459679 
18 0.329524 
19 0.164857 
20 0.005594 
21 -0.158370 
22 -0.303672 
23 -0.445348 
24 -0.583007 
25 -0.707237 
26 -0.803553 
27 -0.878381 
28 -0.949318 
29 -1.017896 
30 -1.031969 
31 -0.984704 
32 -0.919903 
33 -0.883265 
34 -0.814545 
35 -0.705292 
36 -0.583361 
37 -0.461017 
38 -0.326335 
39 -0.162392 
Zone T= "9"
I=40 
0 0.022825 
1 0.168021 
2 0.283460 
3 0.436107 
4 0.591756 
5 0.712383 
6 0.801337 
7 0.890315 
8 0.970927 
9 0.997471 
10 0.973107 
11 0.969678 
12 0.972556 
13 0.907828 
14 0.806995 
15 0.698926 
16 0.583249 
17 0.460474 
18 0.331225 
19 0.166298 
20 0.005991 
21 -0.158371 
22 -0.303094 
23 -0.444394 
24 -0.582558 
25 -0.707185 
26 -0.802738 
27 -0.877046 
28 -0.950022 
29 -1.021450 
30 -1.034686 
31 -0.983483 
32 -0.917140 
33 -0.882558 
34 -0.815173 
35 -0.705013 
36 -0.582882 
37 -0.462078 
38 -0.328113 
39 -0.162527 
Zone T= "10"
I=40 
0 0.024519 
1 0.168941 
2 0.281829 
3 0.433986 
4 0.591768 
5 0.713175 
6 0.800682 
7 0.889933 
8 0.972673 
9 0.998624 
10 0.971283 
11 0.967731 
12 0.973488 
13 0.909860 
14 0.807359 
15 0.697970 
16 0.582751 
17 0.461252 
18 0.332908 
19 0.167739 
20 0.006411 
21 -0.158361 
22 -0.302512 
23 -0.443443 
24 -0.582125 
25 -0.707114 
26 -0.801876 
27 -0.875771 
28 -0.950879 
29 -1.025010 
30 -1.037220 
31 -0.982158 
32 -0.914463 
33 -0.881929 
34 -0.815768 
35 -0.704712 
36 -0.582454 
37 -0.463159 
38 -0.329833 
39 -0.162637 
Zone T= "11"
I=40 
0 0.026156 
1 0.169843 
2 0.280272 
3 0.431890 
4 0.591708 
5 0.713954 
6 0.800092 
7 0.889517 
8 0.974321 
9 0.999835 
10 0.969601 
11 0.965751 
12 0.974278 
13 0.911878 
14 0.807807 
15 0.697042 
16 0.582232 
17 0.462012 
18 0.334575 
19 0.169181 
20 0.006851 
21 -0.158338 
22 -0.301924 
23 -0.442494 
24 -0.581709 
25 -0.707023 
26 -0.800970 
27 -0.874561 
28 -0.951886 
29 -1.028567 
30 -1.039572 
31 -0.980739 
32 -0.911872 
33 -0.881370 
34 -0.816326 
35 -0.704391 
36 -0.582076 
37 -0.464257 
38 -0.331497 
39 -0.162725 
Zone T= "12"
I=40 
0 0.027739 
1 0.170728 
2 0.278785 
3 0.429819 
4 0.591579 
5 0.714717 
6 0.799566 
7 0.889072 
8 0.975872 
9 1.001096 
10 0.968058 
11 0.963747 
12 0.974931 
13 0.913875 
14 0.808338 
15 0.696148 
16 0.581692 
17 0.462752 
18 0.336227 
19 0.170622 
20 0.007311 
21 -0.158301 
22 -0.301332 
23 -0.441549 
24 -0.581307 
25 -0.706909 
26 -0.800025 
27 -0.873422 
28 -0.953036 
29 -1.032110 
30 -1.041743 
31 -0.979236 
32 -0.909369 
33 -0.880878 
34 -0.816848 
35 -0.704055 
36 -0.581747 
37 -0.465369 
38 -0.333107 
39 -0.162792 
Zone T= "13"
I=40 
0 0.029272 
1 0.171596 
2 0.277364 
3 0.427777 
4 0.591384 
5 0.715461 
6 0.799101 
7 0.888603 
8 0.977327 
9 1.002400 
10 0.966652 
11 0.961730 
12 0.975449 
13 0.915846 
14 0.808947 
15 0.695289 
16 0.581134 
17 0.463473 
18 0.337863 
19 0.172064 
20 0.007790 
21 -0.158250 
22 -0.300735 
23 -0.440610 
24 -0.580917 
25 -0.706772 
26 -0.799044 
27 -0.872358 
28 -0.954325 
29 -1.035631 
30 -1.043736 
31 -0.977656 
32 -0.906956 
33 -0.880445 
34 -0.817334 
35 -0.703707 
36 -0.581465 
37 -0.466491 
38 -0.334665 
39 -0.162840 
Zone T= "14"
I=40 
0 0.030756 
1 0.172446 
2 0.276005 
3 0.425764 
4 0.591127 
5 0.716182 
6 0.798694 
7 0.888117 
8 0.978688 
9 1.003738 
10 0.965381 
11 0.959706 
12 0.975836 
13 0.917783 
14 0.809632 
15 0.694470 
16 0.580558 
17 0.464171 
18 0.339485 
19 0.173507 
20 0.008287 
21 -0.158185 
22 -0.300132 
23 -0.439677 
24 -0.580540 
25 -0.706609 
26 -0.798033 
27 -0.871375 
28 -0.955747 
29 -1.039120 
30 -1.045552 
31 -0.976010 
32 -0.904632 
33 -0.880067 
34 -0.817784 
35 -0.703351 
36 -0.581230 
37 -0.467621 
38 -0.336174 
39 -0.162870 
Zone T= "0"
I=40 
0 0.032195 
1 0.173278 
2 0.274706 
3 0.423783 
4 0.590811 
5 0.716879 
6 0.798343 
7 0.887616 
8 0.979957 
9 1.005103 
10 0.964242 
11 0.957685 
12 0.971683 
13 0.918828 
14 0.810388 
15 0.693694 
16 0.579966 
17 0.464847 
18 0.340391 
19 0.174950 
20 0.008801 
21 -0.160294 
22 -0.299524 
23 -0.438751 
24 -0.580173 
25 -0.706418 
26 -0.796995 
27 -0.870476 
28 -0.957297 
29 -1.042571 
30 -1.047195 
31 -0.974304 
32 -0.902397 
33 -0.879739 
34 -0.818198 
35 -0.702989 
36 -0.581040 
37 -0.468758 
38 -0.337635 
39 -0.162884 
Zone T= "1"
I=40 
0 0.033647 
1 0.174007 
2 0.273494 
3 0.421855 
4 0.590433 
5 0.717525 
6 0.798021 
7 0.887244 
8 0.980982 
9 1.006397 
10 0.963789 
11 0.954696 
12 0.968689 
13 0.918871 
14 0.811434 
15 0.693067 
16 0.579297 
17 0.465331 
18 0.341540 
19 0.176397 
20 0.008858 
21 -0.161640 
22 -0.299528 
23 -0.437549 
24 -0.579825 
25 -0.706280 
26 -0.795897 
27 -0.869664 
28 -0.958939 
29 -1.046034 
30 -1.048649 
31 -0.972474 
32 -0.900365 
33 -0.879418 
34 -0.818487 
35 -0.702760 
36 -0.580845 
37 -0.469817 
38 -0.339176 
39 -0.162833 
Zone T= "2"
I=40 
0 0.035101 
1 0.174723 
2 0.272272 
3 0.420030 
4 0.589999 
5 0.718062 
6 0.797841 
7 0.886851 
8 0.981843 
9 1.007807 
10 0.963411 
11 0.951713 
12 0.965793 
13 0.918741 
14 0.812366 
15 0.692656 
16 0.578567 
17 0.465691 
18 0.342837 
19 0.177765 
20 0.008836 
21 -0.162811 
22 -0.299580 
23 -0.436429 
24 -0.579372 
25 -0.706169 
26 -0.794821 
27 -0.868857 
28 -0.960750 
29 -1.049461 
30 -1.049879 
31 -0.970639 
32 -0.898427 
33 -0.879113 
34 -0.818757 
35 -0.702527 
36 -0.580699 
37 -0.470865 
38 -0.340666 
39 -0.162807 
Zone T= "3"
I=40 
0 0.036535 
1 0.175429 
2 0.271067 
3 0.418270 
4 0.589522 
5 0.718528 
6 0.797745 
7 0.886456 
8 0.982588 
9 1.009258 
10 0.963129 
11 0.948788 
12 0.962922 
13 0.918471 
14 0.813226 
15 0.692372 
16 0.577820 
17 0.465977 
18 0.344194 
19 0.179098 
20 0.008776 
21 -0.163887 
22 -0.299641 
23 -0.435358 
24 -0.578880 
25 -0.706048 
26 -0.793746 
27 -0.868109 
28 -0.962694 
29 -1.052829 
30 -1.050922 
31 -0.968789 
32 -0.896574 
33 -0.878832 
34 -0.819004 
35 -0.702292 
36 -0.580599 
37 -0.471910 
38 -0.342107 
39 -0.162789 
Zone T= "4"
I=40 
0 0.037939 
1 0.176125 
2 0.269893 
3 0.416556 
4 0.589007 
5 0.718944 
6 0.797703 
7 0.886068 
8 0.983243 
9 1.010715 
10 0.962946 
11 0.945946 
12 0.960045 
13 0.918079 
14 0.814035 
15 0.692173 
16 0.577073 
17 0.466210 
18 0.345569 
19 0.180415 
20 0.008700 
21 -0.164905 
22 -0.299691 
23 -0.434320 
24 -0.578379 
25 -0.705901 
26 -0.792667 
27 -0.867448 
28 -0.964751 
29 -1.056126 
30 -1.051797 
31 -0.966922 
32 -0.894803 
33 -0.878579 
34 -0.819225 
35 -0.702058 
36 -0.580541 
37 -0.472953 
38 -0.343503 
39 -0.162770 
Zone T= "5"
I=40 
0 0.039310 
1 0.176809 
2 0.268757 
3 0.414878 
4 0.588455 
5 0.719317 
6 0.797702 
7 0.885691 
8 0.983824 
9 1.012157 
10 0.962861 
11 0.943201 
12 0.957152 
13 0.917573 
14 0.814801 
15 0.692036 
16 0.576337 
17 0.466403 
18 0.346943 
19 0.181724 
20 0.008618 
21 -0.165885 
22 -0.299725 
23 -0.433309 
24 -0.577882 
25 -0.705721 
26 -0.791582 
27 -0.866886 
28 -0.966907 
29 -1.059343 
30 -1.052518 
31 -0.965041 
32 -0.893113 
33 -0.878351 
34 -0.819419 
35 -0.701827 
36 -0.580521 
37 -0.473994 
38 -0.344855 
39 -0.162744 
Zone T= "6"
I=40 
0 0.040647 
1 0.177481 
2 0.267661 
3 0.413235 
4 0.587871 
5 0.719652 
6 0.797732 
7 0.885327 
8 0.984340 
9 1.013577 
10 0.962870 
11 0.940560 
12 0.954242 
13 0.916957 
14 0.815525 
15 0.691951 
16 0.575617 
17 0.466563 
18 0.348307 
19 0.183028 
20 0.008533 
21 -0.166833 
22 -0.299738 
23 -0.432319 
24 -0.577394 
25 -0.705502 
26 -0.790496 
27 -0.866430 
28 -0.969151 
29 -1.062473 
30 -1.053092 
31 -0.963149 
32 -0.891500 
33 -0.878148 
34 -0.819587 
35 -0.701601 
36 -0.580537 
37 -0.475032 
38 -0.346167 
39 -0.162712 
Zone T= "7"
I=40 
0 0.041951 
1 0.178140 
2 0.266604 
3 0.411624 
4 0.587255 
5 0.719953 
6 0.797789 
7 0.884977 
8 0.984797 
9 1.014966 
10 0.962966 
11 0.938027 
12 0.951317 
13 0.916235 
14 0.816205 
15 0.691911 
16 0.574915 
17 0.466694 
18 0.349656 
19 0.184330 
20 0.008450 
21 -0.167754 
22 -0.299730 
23 -0.431351 
24 -0.576916 
25 -0.705245 
26 -0.789410 
27 -0.866084 
28 -0.971476 
29 -1.065511 
30 -1.053526 
31 -0.961252 
32 -0.889963 
33 -0.877966 
34 -0.819730 
35 -0.701382 
36 -0.580588 
37 -0.476067 
38 -0.347440 
39 -0.162672 
Zone T= "8"
I=40 
0 0.043222 
1 0.178787 
2 0.265585 
3 0.410045 
4 0.586610 
5 0.720219 
6 0.797869 
7 0.884643 
8 0.985200 
9 1.016323 
10 0.963145 
11 0.935604 
12 0.948382 
13 0.915409 
14 0.816841 
15 0.691911 
16 0.574233 
17 0.466798 
18 0.350986 
19 0.185629 
20 0.008370 
21 -0.168650 
22 -0.299702 
23 -0.430402 
24 -0.576448 
25 -0.704948 
26 -0.788331 
27 -0.865851 
28 -0.973872 
29 -1.068452 
30 -1.053827 
31 -0.959353 
32 -0.888500 
33 -0.877803 
34 -0.819848 
35 -0.701173 
36 -0.580672 
37 -0.477098 
38 -0.348677 
39 -0.162623 
Zone T= "9"
I=40 
0 0.044462 
1 0.179422 
2 0.264604 
3 0.408497 
4 0.585938 
5 0.720451 
6 0.797970 
7 0.884325 
8 0.985552 
9 1.017644 
10 0.963399 
11 0.933292 
12 0.945443 
13 0.914483 
14 0.817429 
15 0.691949 
16 0.573573 
17 0.466876 
18 0.352299 
19 0.186926 
20 0.008293 
21 -0.169521 
22 -0.299653 
23 -0.429473 
24 -0.575988 
25 -0.704612 
26 -0.787262 
27 -0.865730 
28 -0.976332 
29 -1.071293 
30 -1.053999 
31 -0.957458 
32 -0.887110 
33 -0.877655 
34 -0.819944 
35 -0.700974 
36 -0.580787 
37 -0.478124 
38 -0.349877 
39 -0.162567 
Zone T= "10"
I=40 
0 0.045672 
1 0.180044 
2 0.263660 
3 0.406980 
4 0.585240 
5 0.720650 
6 0.798088 
7 0.884024 
8 0.985858 
9 1.018927 
10 0.963723 
11 0.931090 
12 0.942506 
13 0.913459 
14 0.817966 
15 0.692021 
16 0.572935 
17 0.466931 
18 0.353591 
19 0.188219 
20 0.008220 
21 -0.170368 
22 -0.299585 
23 -0.428563 
24 -0.575535 
25 -0.704237 
26 -0.786208 
27 -0.865722 
28 -0.978849 
29 -1.074029 
30 -1.054050 
31 -0.955571 
32 -0.885788 
33 -0.877521 
34 -0.820018 
35 -0.700787 
36 -0.580931 
37 -0.479144 
38 -0.351043 
39 -0.162503 
Zone T= "11"
I=40 
0 0.046852 
1 0.180653 
2 0.262751 
3 0.405493 
4 0.584518 
5 0.720817 
6 0.798221 
7 0.883740 
8 0.986121 
9 1.020171 
10 0.964112 
11 0.928999 
12 0.939576 
13 0.912341 
14 0.818450 
15 0.692125 
16 0.572321 
17 0.466963 
18 0.354864 
19 0.189510 
20 0.008152 
21 -0.171191 
22 -0.299498 
23 -0.427672 
24 -0.575088 
25 -0.703826 
26 -0.785174 
27 -0.865827 
28 -0.981414 
29 -1.076657 
30 -1.053985 
31 -0.953697 
32 -0.884534 
33 -0.877398 
34 -0.820072 
35 -0.700612 
36 -0.581104 
37 -0.480158 
38 -0.352176 
39 -0.162431 
Zone T= "12"
I=40 
0 0.048004 
1 0.181251 
2 0.261875 
3 0.404037 
4 0.583775 
5 0.720950 
6 0.798367 
7 0.883474 
8 0.986344 
9 1.021375 
10 0.964560 
11 0.927016 
12 0.936660 
13 0.911131 
14 0.818878 
15 0.692256 
16 0.571731 
17 0.466974 
18 0.356116 
19 0.190798 
20 0.008089 
21 -0.171991 
22 -0.299394 
23 -0.426799 
24 -0.574643 
25 -0.703378 
26 -0.784164 
27 -0.866044 
28 -0.984020 
29 -1.079175 
30 -1.053810 
31 -0.951840 
32 -0.883344 
33 -0.877283 
34 -0.820108 
35 -0.700451 
36 -0.581303 
37 -0.481164 
38 -0.353277 
39 -0.162353 
Zone T= "13"
I=40 
0 0.049129 
1 0.181836 
2 0.261033 
3 0.402611 
4 0.583012 
5 0.721052 
6 0.798523 
7 0.883225 
8 0.986531 
9 1.022539 
10 0.965061 
11 0.925143 
12 0.933761 
13 0.909834 
14 0.819248 
15 0.692414 
16 0.571164 
17 0.466965 
18 0.357348 
19 0.192081 
20 0.008031 
21 -0.172766 
22 -0.299273 
23 -0.425945 
24 -0.574200 
25 -0.702896 
26 -0.783182 
27 -0.866371 
28 -0.986661 
29 -1.081581 
30 -1.053530 
31 -0.950004 
32 -0.882215 
33 -0.877176 
34 -0.820127 
35 -0.700304 
36 -0.581527 
37 -0.482163 
38 -0.354347 
39 -0.162267 
Zone T= "14"
I=40 
0 0.050226 
1 0.182408 
2 0.260222 
3 0.401215 
4 0.582230 
5 0.721122 
6 0.798689 
7 0.882994 
8 0.986684 
9 1.023661 
10 0.965611 
11 0.923376 
12 0.930887 
13 0.908453 
14 0.819557 
15 0.692594 
16 0.570623 
17 0.466938 
18 0.358559 
19 0.193361 
20 0.007979 
21 -0.173518 
22 -0.299136 
23 -0.425108 
24 -0.573757 
25 -0.702381 
26 -0.782233 
27 -0.866808 
28 -0.989330 
29 -1.083872 
30 -1.053151 
31 -0.948191 
32 -0.881146 
33 -0.877073 
34 -0.820131 
35 -0.700172 
36 -0.581775 
37 -0.483154 
38 -0.355387 
39 -0.162175 
Zone T= "0"
I=40 
0 0.051299 
1 0.182969 
2 0.259441 
3 0.399849 
4 0.581431 
5 0.721162 
6 0.798862 
7 0.882781 
8 0.986807 
9 1.024742 
10 0.966203 
11 0.921714 
12 0.929689 
13 0.913659 
14 0.819804 
15 0.692794 
16 0.570107 
17 0.466894 
18 0.359070 
19 0.194635 
20 0.007934 
21 -0.174247 
22 -0.298985 
23 -0.424288 
24 -0.573313 
25 -0.701834 
26 -0.781321 
27 -0.867353 
28 -0.992018 
29 -1.086048 
30 -1.052681 
31 -0.946405 
32 -0.880134 
33 -0.876974 
34 -0.820122 
35 -0.700055 
36 -0.582045 
37 -0.484137 
38 -0.356398 
39 -0.162077 
Zone T= "1"
I=40 
0 0.052298 
1 0.183487 
2 0.258731 
3 0.398519 
4 0.580597 
5 0.721122 
6 0.799149 
7 0.882558 
8 0.986707 
9 1.026113 
10 0.966713 
11 0.919688 
12 0.929597 
13 0.917041 
14 0.821701 
15 0.692179 
16 0.569776 
17 0.466955 
18 0.359533 
19 0.195755 
20 0.008076 
21 -0.175029 
22 -0.298852 
23 -0.423449 
24 -0.572841 
25 -0.701299 
26 -0.780474 
27 -0.867912 
28 -0.994778 
29 -1.088162 
30 -1.051993 
31 -0.944724 
32 -0.879238 
33 -0.876733 
34 -0.820182 
35 -0.700013 
36 -0.582202 
37 -0.485186 
38 -0.357428 
39 -0.161873 
Zone T= "2"
I=40 
0 0.053324 
1 0.183915 
2 0.258076 
3 0.397282 
4 0.579650 
5 0.721089 
6 0.799506 
7 0.882246 
8 0.986630 
9 1.027492 
10 0.967164 
11 0.917825 
12 0.929452 
13 0.920158 
14 0.823769 
15 0.691717 
16 0.569276 
17 0.467087 
18 0.360057 
19 0.196725 
20 0.008294 
21 -0.175742 
22 -0.298812 
23 -0.422558 
24 -0.572341 
25 -0.700816 
26 -0.779614 
27 -0.868565 
28 -0.997597 
29 -1.090122 
30 -1.051221 
31 -0.943097 
32 -0.878384 
33 -0.876489 
34 -0.820227 
35 -0.700007 
36 -0.582370 
37 -0.486196 
38 -0.358481 
39 -0.161646 
Zone T= "3"
I=40 
0 0.054355 
1 0.184295 
2 0.257454 
3 0.396109 
4 0.578647 
5 0.721035 
6 0.799900 
7 0.881909 
8 0.986539 
9 1.028849 
10 0.967625 
11 0.916078 
12 0.929237 
13 0.923085 
14 0.825943 
15 0.691386 
16 0.568691 
17 0.467231 
18 0.360620 
19 0.197620 
20 0.008535 
21 -0.176403 
22 -0.298805 
23 -0.421659 
24 -0.571824 
25 -0.700340 
26 -0.778779 
27 -0.869315 
28 -1.000436 
29 -1.091947 
30 -1.050374 
31 -0.941514 
32 -0.877572 
33 -0.876246 
34 -0.820259 
35 -0.700026 
36 -0.582555 
37 -0.487180 
38 -0.359532 
39 -0.161409 
Zone T= "4"
I=40 
0 0.055380 
1 0.184646 
2 0.256857 
3 0.394986 
4 0.577615 
5 0.720947 
6 0.800313 
7 0.881578 
8 0.986422 
9 1.030168 
10 0.968124 
11 0.914428 
12 0.928945 
13 0.925859 
14 0.828193 
15 0.691173 
16 0.568064 
17 0.467363 
18 0.361210 
19 0.198474 
20 0.008778 
21 -0.177020 
22 -0.298803 
23 -0.420771 
24 -0.571293 
25 -0.699851 
26 -0.777986 
27 -0.870164 
28 -1.003275 
29 -1.093647 
30 -1.049461 
31 -0.939970 
32 -0.876802 
33 -0.876004 
34 -0.820280 
35 -0.700065 
36 -0.582759 
37 -0.488146 
38 -0.360570 
39 -0.161167 
Zone T= "5"
I=40 
0 0.056394 
1 0.184978 
2 0.256279 
3 0.393903 
4 0.576568 
5 0.720822 
6 0.800736 
7 0.881268 
8 0.986275 
9 1.031441 
10 0.968673 
11 0.912867 
12 0.928577 
13 0.928496 
14 0.830498 
15 0.691071 
16 0.567415 
17 0.467471 
18 0.361820 
19 0.199306 
20 0.009011 
21 -0.177600 
22 -0.298792 
23 -0.419903 
24 -0.570752 
25 -0.699342 
26 -0.777247 
27 -0.871110 
28 -1.006101 
29 -1.095226 
30 -1.048488 
31 -0.938462 
32 -0.876074 
33 -0.875763 
34 -0.820293 
35 -0.700122 
36 -0.582980 
37 -0.489096 
38 -0.361589 
39 -0.160922 
Zone T= "6"
I=40 
0 0.057394 
1 0.185296 
2 0.255718 
3 0.392858 
4 0.575514 
5 0.720658 
6 0.801162 
7 0.880985 
8 0.986098 
9 1.032661 
10 0.969272 
11 0.911391 
12 0.928136 
13 0.931005 
14 0.832848 
15 0.691077 
16 0.566758 
17 0.467550 
18 0.362444 
19 0.200124 
20 0.009232 
21 -0.178146 
22 -0.298766 
23 -0.419058 
24 -0.570200 
25 -0.698808 
26 -0.776567 
27 -0.872151 
28 -1.008905 
29 -1.096689 
30 -1.047460 
31 -0.936991 
32 -0.875385 
33 -0.875522 
34 -0.820298 
35 -0.700196 
36 -0.583218 
37 -0.490032 
38 -0.362587 
39 -0.160676 
Zone T= "7"
I=40 
0 0.058380 
1 0.185603 
2 0.255174 
3 0.391845 
4 0.574457 
5 0.720457 
6 0.801586 
7 0.880732 
8 0.985894 
9 1.033828 
10 0.969920 
11 0.909999 
12 0.927629 
13 0.933389 
14 0.835233 
15 0.691187 
16 0.566101 
17 0.467597 
18 0.363079 
19 0.200933 
20 0.009438 
21 -0.178660 
22 -0.298724 
23 -0.418236 
24 -0.569638 
25 -0.698252 
26 -0.775951 
27 -0.873282 
28 -1.011680 
29 -1.098037 
30 -1.046383 
31 -0.935557 
32 -0.874733 
33 -0.875282 
34 -0.820298 
35 -0.700286 
36 -0.583473 
37 -0.490955 
38 -0.363563 
39 -0.160427 
Zone T= "8"
I=40 
0 0.059349 
1 0.185901 
2 0.254646 
3 0.390865 
4 0.573400 
5 0.720218 
6 0.802004 
7 0.880509 
8 0.985666 
9 1.034940 
10 0.970614 
11 0.908692 
12 0.927061 
13 0.935651 
14 0.837646 
15 0.691398 
16 0.565451 
17 0.467614 
18 0.363724 
19 0.201734 
20 0.009631 
21 -0.179144 
22 -0.298664 
23 -0.417437 
24 -0.569065 
25 -0.697674 
26 -0.775401 
27 -0.874501 
28 -1.014419 
29 -1.099272 
30 -1.045262 
31 -0.934160 
32 -0.874115 
33 -0.875042 
34 -0.820293 
35 -0.700392 
36 -0.583744 
37 -0.491866 
38 -0.364516 
39 -0.160178 
Zone T= "9"
I=40 
0 0.060303 
1 0.186190 
2 0.254133 
3 0.389914 
4 0.572344 
5 0.719944 
6 0.802415 
7 0.880316 
8 0.985417 
9 1.035996 
10 0.971347 
11 0.907470 
12 0.926439 
13 0.937793 
14 0.840079 
15 0.691710 
16 0.564811 
17 0.467600 
18 0.364374 
19 0.202530 
20 0.009811 
21 -0.179598 
22 -0.298587 
23 -0.416660 
24 -0.568481 
25 -0.697078 
26 -0.774920 
27 -0.875803 
28 -1.017118 
29 -1.100396 
30 -1.044103 
31 -0.932802 
32 -0.873530 
33 -0.874802 
34 -0.820285 
35 -0.700512 
36 -0.584029 
37 -0.492765 
38 -0.365448 
39 -0.159927 
Zone T= "10"
I=40 
0 0.061241 
1 0.186471 
2 0.253634 
3 0.388991 
4 0.571292 
5 0.719637 
6 0.802815 
7 0.880153 
8 0.985151 
9 1.036996 
10 0.972116 
11 0.906331 
12 0.925769 
13 0.939815 
14 0.842526 
15 0.692119 
16 0.564186 
17 0.467555 
18 0.365029 
19 0.203320 
20 0.009978 
21 -0.180025 
22 -0.298494 
23 -0.415904 
24 -0.567886 
25 -0.696465 
26 -0.774510 
27 -0.877185 
28 -1.019771 
29 -1.101412 
30 -1.042910 
31 -0.931481 
32 -0.872976 
33 -0.874562 
34 -0.820274 
35 -0.700647 
36 -0.584328 
37 -0.493653 
38 -0.366358 
39 -0.159676 
Zone T= "11"
I=40 
0 0.062163 
1 0.186746 
2 0.253150 
3 0.388095 
4 0.570244 
5 0.719297 
6 0.803203 
7 0.880017 
8 0.984871 
9 1.037941 
10 0.972915 
11 0.905275 
12 0.925057 
13 0.941719 
14 0.844982 
15 0.692624 
16 0.563579 
17 0.467482 
18 0.365687 
19 0.204107 
20 0.010134 
21 -0.180426 
22 -0.298386 
23 -0.415168 
24 -0.567279 
25 -0.695840 
26 -0.774171 
27 -0.878641 
28 -1.022374 
29 -1.102321 
30 -1.041688 
31 -0.930199 
32 -0.872449 
33 -0.874323 
34 -0.820263 
35 -0.700796 
36 -0.584641 
37 -0.494529 
38 -0.367246 
39 -0.159424 
Zone T= "12"
I=40 
0 0.063070 
1 0.187014 
2 0.252678 
3 0.387224 
4 0.569203 
5 0.718927 
6 0.803577 
7 0.879909 
8 0.984580 
9 1.038832 
10 0.973740 
11 0.904302 
12 0.924310 
13 0.943507 
14 0.847440 
15 0.693222 
16 0.562995 
17 0.467381 
18 0.366345 
19 0.204889 
20 0.010281 
21 -0.180801 
22 -0.298262 
23 -0.414450 
24 -0.566660 
25 -0.695204 
26 -0.773906 
27 -0.880169 
28 -1.024922 
29 -1.103126 
30 -1.040442 
31 -0.928955 
32 -0.871947 
33 -0.874084 
34 -0.820251 
35 -0.700958 
36 -0.584967 
37 -0.495394 
38 -0.368111 
39 -0.159172 
Zone T= "13"
I=40 
0 0.063960 
1 0.187277 
2 0.252220 
3 0.386378 
4 0.568168 
5 0.718528 
6 0.803936 
7 0.879827 
8 0.984281 
9 1.039669 
10 0.974586 
11 0.903410 
12 0.923534 
13 0.945182 
14 0.849894 
15 0.693910 
16 0.562436 
17 0.467254 
18 0.367003 
19 0.205668 
20 0.010419 
21 -0.181152 
22 -0.298125 
23 -0.413748 
24 -0.566030 
25 -0.694560 
26 -0.773715 
27 -0.881762 
28 -1.027413 
29 -1.103829 
30 -1.039175 
31 -0.927749 
32 -0.871470 
33 -0.873845 
34 -0.820240 
35 -0.701133 
36 -0.585304 
37 -0.496248 
38 -0.368956 
39 -0.158919 
Zone T= "14"
I=40 
0 0.064834 
1 0.187535 
2 0.251774 
3 0.385555 
4 0.567142 
5 0.718102 
6 0.804276 
7 0.879769 
8 0.983977 
9 1.040454 
10 0.975448 
11 0.902598 
12 0.922734 
13 0.946744 
14 0.852341 
15 0.694686 
16 0.561906 
17 0.467102 
18 0.367658 
19 0.206443 
20 0.010549 
21 -0.181479 
22 -0.297974 
23 -0.413062 
24 -0.565387 
25 -0.693913 
26 -0.773599 
27 -0.883417 
28 -1.029842 
29 -1.104433 
30 -1.037892 
31 -0.926582 
32 -0.871014 
33 -0.873607 
34 -0.820231 
35 -0.701320 
36 -0.585654 
37 -0.497091 
38 -0.369778 
39 -0.158667 
Zone T= "0"
I=40 
0 0.065692 
1 0.187788 
2 0.251341 
3 0.384755 
4 0.566124 
5 0.717650 
6 0.804598 
7 0.879733 
8 0.983670 
9 1.041187 
10 0.976323 
11 0.901866 
12 0.923679 
13 0.941531 
14 0.854774 
15 0.695546 
16 0.561407 
17 0.466927 
18 0.365969 
19 0.207215 
20 0.010673 
21 -0.181783 
22 -0.297810 
23 -0.414080 
24 -0.564733 
25 -0.693265 
26 -0.773558 
27 -0.885129 
28 -1.032206 
29 -1.104941 
30 -1.036597 
31 -0.925451 
32 -0.870577 
33 -0.873371 
34 -0.820224 
35 -0.701519 
36 -0.586015 
37 -0.497924 
38 -0.370580 
39 -0.158415 
Zone T= "1"
I=40 
0 0.066565 
1 0.188040 
2 0.250932 
3 0.383955 
4 0.565072 
5 0.717313 
6 0.804787 
7 0.879612 
8 0.983728 
9 1.041552 
10 0.976936 
11 0.902472 
12 0.922365 
13 0.939079 
14 0.854898 
15 0.697305 
16 0.561327 
17 0.465686 
18 0.365396 
19 0.207263 
20 0.010946 
21 -0.181782 
22 -0.298233 
23 -0.414440 
24 -0.564544 
25 -0.692442 
26 -0.773495 
27 -0.887089 
28 -1.034421 
29 -1.105251 
30 -1.035470 
31 -0.924287 
32 -0.870062 
33 -0.873297 
34 -0.820152 
35 -0.701654 
36 -0.586513 
37 -0.498689 
38 -0.371317 
39 -0.158235 
Zone T= "2"
I=40 
0 0.067340 
1 0.188378 
2 0.250530 
3 0.383083 
4 0.564135 
5 0.716936 
6 0.804867 
7 0.879621 
8 0.983751 
9 1.041809 
10 0.977658 
11 0.903052 
12 0.921059 
13 0.936781 
14 0.854854 
15 0.698943 
16 0.561445 
17 0.464413 
18 0.364740 
19 0.207416 
20 0.011158 
21 -0.181827 
22 -0.298567 
23 -0.414839 
24 -0.564356 
25 -0.691574 
26 -0.773545 
27 -0.889098 
28 -1.036539 
29 -1.105488 
30 -1.034335 
31 -0.923164 
32 -0.869554 
33 -0.873217 
34 -0.820119 
35 -0.701762 
36 -0.587015 
37 -0.499506 
38 -0.371968 
39 -0.158053 
Zone T= "3"
I=40 
0 0.068057 
1 0.188752 
2 0.250143 
3 0.382184 
4 0.563252 
5 0.716539 
6 0.804886 
7 0.879687 
8 0.983767 
9 1.042007 
10 0.978412 
11 0.903639 
12 0.919801 
13 0.934562 
14 0.854685 
15 0.700496 
16 0.561681 
17 0.463152 
18 0.364033 
19 0.207605 
20 0.011346 
21 -0.181897 
22 -0.298863 
23 -0.415246 
24 -0.564155 
25 -0.690699 
26 -0.773690 
27 -0.891148 
28 -1.038575 
29 -1.105650 
30 -1.033193 
31 -0.922079 
32 -0.869059 
33 -0.873134 
34 -0.820108 
35 -0.701863 
36 -0.587521 
37 -0.500345 
38 -0.372569 
39 -0.157867 
Zone T= "4"
I=40 
0 0.068736 
1 0.189140 
2 0.249774 
3 0.381279 
4 0.562395 
5 0.716131 
6 0.804865 
7 0.879777 
8 0.983787 
9 1.042168 
10 0.979163 
11 0.904243 
12 0.918611 
13 0.932389 
14 0.854412 
15 0.701979 
16 0.561996 
17 0.461920 
18 0.363292 
19 0.207800 
20 0.011525 
21 -0.181980 
22 -0.299147 
23 -0.415647 
24 -0.563935 
25 -0.689834 
26 -0.773918 
27 -0.893228 
28 -1.040533 
29 -1.105735 
30 -1.032048 
31 -0.921032 
32 -0.868578 
33 -0.873049 
34 -0.820111 
35 -0.701967 
36 -0.588031 
37 -0.501189 
38 -0.373134 
39 -0.157676 
Zone T= "5"
I=40 
0 0.069386 
1 0.189531 
2 0.249425 
3 0.380380 
4 0.561551 
5 0.715714 
6 0.804818 
7 0.879874 
8 0.983817 
9 1.042307 
10 0.979892 
11 0.904868 
12 0.917497 
13 0.930248 
14 0.854048 
15 0.703398 
16 0.562371 
17 0.460726 
18 0.362525 
19 0.207985 
20 0.011703 
21 -0.182070 
22 -0.299429 
23 -0.416036 
24 -0.563692 
25 -0.688991 
26 -0.774227 
27 -0.895334 
28 -1.042415 
29 -1.105745 
30 -1.030901 
31 -0.920020 
32 -0.868111 
33 -0.872964 
34 -0.820123 
35 -0.702077 
36 -0.588548 
37 -0.502031 
38 -0.373674 
39 -0.157481 
Zone T= "6"
I=40 
0 0.070014 
1 0.189920 
2 0.249095 
3 0.379491 
4 0.560714 
5 0.715291 
6 0.804749 
7 0.879969 
8 0.983857 
9 1.042430 
10 0.980594 
11 0.905513 
12 0.916462 
13 0.928134 
14 0.853599 
15 0.704758 
16 0.562793 
17 0.459575 
18 0.361740 
19 0.208153 
20 0.011882 
21 -0.182163 
22 -0.299714 
23 -0.416410 
24 -0.563426 
25 -0.688175 
26 -0.774612 
27 -0.897459 
28 -1.044223 
29 -1.105684 
30 -1.029756 
31 -0.919043 
32 -0.867657 
33 -0.872879 
34 -0.820142 
35 -0.702196 
36 -0.589069 
37 -0.502869 
38 -0.374192 
39 -0.157282 
Zone T= "7"
I=40 
0 0.070621 
1 0.190306 
2 0.248783 
3 0.378615 
4 0.559881 
5 0.714862 
6 0.804663 
7 0.880060 
8 0.983907 
9 1.042541 
10 0.981265 
11 0.906176 
12 0.915506 
13 0.926048 
14 0.853070 
15 0.706058 
16 0.563257 
17 0.458467 
18 0.360939 
19 0.208300 
20 0.012064 
21 -0.182259 
22 -0.300005 
23 -0.416767 
24 -0.563138 
25 -0.687390 
26 -0.775072 
27 -0.899599 
28 -1.045955 
29 -1.105553 
30 -1.028614 
31 -0.918099 
32 -0.867217 
33 -0.872795 
34 -0.820169 
35 -0.702325 
36 -0.589596 
37 -0.503700 
38 -0.374689 
39 -0.157080 
Zone T= "8"
I=40 
0 0.071209 
1 0.190686 
2 0.248489 
3 0.377753 
4 0.559052 
5 0.714427 
6 0.804560 
7 0.880144 
8 0.983967 
9 1.042644 
10 0.981904 
11 0.906853 
12 0.914629 
13 0.923992 
14 0.852466 
15 0.707298 
16 0.563756 
17 0.457405 
18 0.360125 
19 0.208426 
20 0.012247 
21 -0.182355 
22 -0.300304 
23 -0.417107 
24 -0.562827 
25 -0.686641 
26 -0.775606 
27 -0.901750 
28 -1.047611 
29 -1.105357 
30 -1.027477 
31 -0.917188 
32 -0.866788 
33 -0.872711 
34 -0.820203 
35 -0.702462 
36 -0.590128 
37 -0.504524 
38 -0.375167 
39 -0.156874 
Zone T= "9"
I=40 
0 0.071779 
1 0.191062 
2 0.248212 
3 0.376905 
4 0.558226 
5 0.713988 
6 0.804442 
7 0.880219 
8 0.984036 
9 1.042739 
10 0.982511 
11 0.907544 
12 0.913829 
13 0.921966 
14 0.851791 
15 0.708477 
16 0.564288 
17 0.456388 
18 0.359299 
19 0.208530 
20 0.012433 
21 -0.182453 
22 -0.300608 
23 -0.417428 
24 -0.562496 
25 -0.685928 
26 -0.776210 
27 -0.903905 
28 -1.049191 
29 -1.105099 
30 -1.026348 