VARIABLES = "x", "y" 
Zone T= "0"
I=40 
0 0.001496 
1 0.157678 
2 0.306064 
3 0.453719 
4 0.584531 
5 0.702171 
6 0.804453 
7 0.885442 
8 0.949638 
9 0.987136 
10 0.996333 
11 0.989369 
12 0.950407 
13 0.895190 
14 0.811559 
15 0.707814 
16 0.589881 
17 0.459867 
18 0.310392 
19 0.157832 
20 -0.002829 
21 -0.154078 
22 -0.311592 
23 -0.455092 
24 -0.589587 
25 -0.709034 
26 -0.812312 
27 -0.893689 
28 -0.952969 
29 -0.986246 
30 -0.997438 
31 -0.987845 
32 -0.950104 
33 -0.887564 
34 -0.804896 
35 -0.701299 
36 -0.581088 
37 -0.448253 
38 -0.306692 
39 -0.154577 
Zone T= "1"
I=40 
0 0.003551 
1 0.157904 
2 0.304515 
3 0.452123 
4 0.582065 
5 0.697562 
6 0.798819 
7 0.881143 
8 0.947551 
9 0.985786 
10 0.994715 
11 0.988531 
12 0.951631 
13 0.898337 
14 0.814289 
15 0.708724 
16 0.592132 
17 0.464830 
18 0.313371 
19 0.157197 
20 -0.003320 
21 -0.153881 
22 -0.312692 
23 -0.456896 
24 -0.591233 
25 -0.711112 
26 -0.815265 
27 -0.896905 
28 -0.954338 
29 -0.984679 
30 -0.995451 
31 -0.987477 
32 -0.949256 
33 -0.884287 
34 -0.800332 
35 -0.695844 
36 -0.574279 
37 -0.442660 
38 -0.304328 
39 -0.152962 
Zone T= "2"
I=40 
0 0.005541 
1 0.158224 
2 0.302953 
3 0.450495 
4 0.579731 
5 0.692984 
6 0.793195 
7 0.876902 
8 0.945306 
9 0.984376 
10 0.993238 
11 0.987572 
12 0.952706 
13 0.901553 
14 0.816988 
15 0.709658 
16 0.594475 
17 0.469648 
18 0.316346 
19 0.156762 
20 -0.003882 
21 -0.153767 
22 -0.313696 
23 -0.458758 
24 -0.592942 
25 -0.713141 
26 -0.818291 
27 -0.900117 
28 -0.955508 
29 -0.983077 
30 -0.993590 
31 -0.987077 
32 -0.948290 
33 -0.881007 
34 -0.795744 
35 -0.690328 
36 -0.567585 
37 -0.437183 
38 -0.301913 
39 -0.151391 
Zone T= "3"
I=40 
0 0.007481 
1 0.158590 
2 0.301410 
3 0.448854 
4 0.577472 
5 0.688473 
6 0.787603 
7 0.872659 
8 0.942948 
9 0.982924 
10 0.991834 
11 0.986542 
12 0.953659 
13 0.904763 
14 0.819698 
15 0.710641 
16 0.596845 
17 0.474367 
18 0.319341 
19 0.156461 
20 -0.004479 
21 -0.153708 
22 -0.314659 
23 -0.460652 
24 -0.594685 
25 -0.715166 
26 -0.821375 
27 -0.903291 
28 -0.956509 
29 -0.981448 
30 -0.991830 
31 -0.986653 
32 -0.947224 
33 -0.877705 
34 -0.791137 
35 -0.684780 
36 -0.560982 
37 -0.431810 
38 -0.299481 
39 -0.149838 
Zone T= "4"
I=40 
0 0.009380 
1 0.158981 
2 0.299900 
3 0.447211 
4 0.575261 
5 0.684044 
6 0.782058 
7 0.868389 
8 0.940499 
9 0.981437 
10 0.990469 
11 0.985467 
12 0.954502 
13 0.907929 
14 0.822438 
15 0.711686 
16 0.599208 
17 0.479007 
18 0.322368 
19 0.156259 
20 -0.005093 
21 -0.153690 
22 -0.315609 
23 -0.462567 
24 -0.596452 
25 -0.717208 
26 -0.824508 
27 -0.906412 
28 -0.957359 
29 -0.979800 
30 -0.990155 
31 -0.986206 
32 -0.946064 
33 -0.874371 
34 -0.786511 
35 -0.679214 
36 -0.554459 
37 -0.426536 
38 -0.297049 
39 -0.148291 
Zone T= "5"
I=40 
0 0.011242 
1 0.159386 
2 0.298429 
3 0.445571 
4 0.573083 
5 0.679700 
6 0.776564 
7 0.864085 
8 0.937968 
9 0.979919 
10 0.989126 
11 0.984359 
12 0.955244 
13 0.911034 
14 0.825213 
15 0.712799 
16 0.601553 
17 0.483580 
18 0.325431 
19 0.156143 
20 -0.005713 
21 -0.153708 
22 -0.316560 
23 -0.464496 
24 -0.598237 
25 -0.719281 
26 -0.827682 
27 -0.909468 
28 -0.958069 
29 -0.978137 
30 -0.988557 
31 -0.985737 
32 -0.944814 
33 -0.871003 
34 -0.781867 
35 -0.673637 
36 -0.548012 
37 -0.421353 
38 -0.294623 
39 -0.146746 
Zone T= "6"
I=40 
0 0.013069 
1 0.159801 
2 0.296998 
3 0.443938 
4 0.570933 
5 0.675441 
6 0.771127 
7 0.859745 
8 0.935360 
9 0.978369 
10 0.987796 
11 0.983225 
12 0.955892 
13 0.914066 
14 0.828025 
15 0.713983 
16 0.603875 
17 0.488092 
18 0.328531 
19 0.156102 
20 -0.006336 
21 -0.153756 
22 -0.317519 
23 -0.466435 
24 -0.600037 
25 -0.721390 
26 -0.830892 
27 -0.912452 
28 -0.958648 
29 -0.976464 
30 -0.987030 
31 -0.985244 
32 -0.943479 
33 -0.867601 
34 -0.777208 
35 -0.668055 
36 -0.541638 
37 -0.416260 
38 -0.292206 
39 -0.145200 
Zone T= "7"
I=40 
0 0.014863 
1 0.160224 
2 0.295607 
3 0.442312 
4 0.568807 
5 0.671267 
6 0.765748 
7 0.855370 
8 0.932680 
9 0.976786 
10 0.986476 
11 0.982071 
12 0.956448 
13 0.917020 
14 0.830871 
15 0.715238 
16 0.606171 
17 0.492544 
18 0.331669 
19 0.156133 
20 -0.006957 
21 -0.153834 
22 -0.318491 
23 -0.468382 
24 -0.601852 
25 -0.723540 
26 -0.834132 
27 -0.915359 
28 -0.959100 
29 -0.974787 
30 -0.985570 
31 -0.984722 
32 -0.942060 
33 -0.864165 
34 -0.772534 
35 -0.662471 
36 -0.535337 
37 -0.411252 
38 -0.289799 
39 -0.143654 
Zone T= "8"
I=40 
0 0.016625 
1 0.160653 
2 0.294256 
3 0.440694 
4 0.566704 
5 0.667174 
6 0.760428 
7 0.850965 
8 0.929928 
9 0.975166 
10 0.985161 
11 0.980900 
12 0.956915 
13 0.919893 
14 0.833748 
15 0.716565 
16 0.608445 
17 0.496940 
18 0.334842 
19 0.156232 
20 -0.007575 
21 -0.153940 
22 -0.319476 
23 -0.470337 
24 -0.603684 
25 -0.725732 
26 -0.837397 
27 -0.918184 
28 -0.959433 
29 -0.973108 
30 -0.984172 
31 -0.984170 
32 -0.940558 
33 -0.860697 
34 -0.767846 
35 -0.656888 
36 -0.529109 
37 -0.406326 
38 -0.287400 
39 -0.142108 
Zone T= "9"
I=40 
0 0.018356 
1 0.161089 
2 0.292944 
3 0.439086 
4 0.564622 
5 0.663159 
6 0.755167 
7 0.846534 
8 0.927109 
9 0.973509 
10 0.983850 
11 0.979714 
12 0.957296 
13 0.922683 
14 0.836653 
15 0.717963 
16 0.610698 
17 0.501282 
18 0.338048 
19 0.156400 
20 -0.008187 
21 -0.154075 
22 -0.320476 
23 -0.472299 
24 -0.605533 
25 -0.727969 
26 -0.840683 
27 -0.920924 
28 -0.959652 
29 -0.971432 
30 -0.982832 
31 -0.983585 
32 -0.938977 
33 -0.857198 
34 -0.763145 
35 -0.651307 
36 -0.522953 
37 -0.401479 
38 -0.285011 
39 -0.140562 
Zone T= "10"
I=40 
0 0.020057 
1 0.161531 
2 0.291669 
3 0.437488 
4 0.562561 
5 0.659222 
6 0.749968 
7 0.842080 
8 0.924224 
9 0.971811 
10 0.982541 
11 0.978516 
12 0.957594 
13 0.925386 
14 0.839582 
15 0.719430 
16 0.612931 
17 0.505570 
18 0.341287 
19 0.156633 
20 -0.008792 
21 -0.154239 
22 -0.321492 
23 -0.474265 
24 -0.607400 
25 -0.730251 
26 -0.843984 
27 -0.923576 
28 -0.959761 
29 -0.969763 
30 -0.981547 
31 -0.982963 
32 -0.937318 
33 -0.853670 
34 -0.758432 
35 -0.645732 
36 -0.516869 
37 -0.396709 
38 -0.282629 
39 -0.139018 
Zone T= "11"
I=40 
0 0.021727 
1 0.161979 
2 0.290432 
3 0.435901 
4 0.560520 
5 0.655357 
6 0.744828 
7 0.837608 
8 0.921275 
9 0.970071 
10 0.981233 
11 0.977308 
12 0.957811 
13 0.928003 
14 0.842532 
15 0.720967 
16 0.615149 
17 0.509807 
18 0.344555 
19 0.156932 
20 -0.009389 
21 -0.154430 
22 -0.322524 
23 -0.476238 
24 -0.609287 
25 -0.732579 
26 -0.847296 
27 -0.926137 
28 -0.959766 
29 -0.968104 
30 -0.980313 
31 -0.982303 
32 -0.935584 
33 -0.850114 
34 -0.753708 
35 -0.640164 
36 -0.510857 
37 -0.392013 
38 -0.280255 
39 -0.137476 
Zone T= "12"
I=40 
0 0.023369 
1 0.162434 
2 0.289230 
3 0.434324 
4 0.558499 
5 0.651564 
6 0.739748 
7 0.833122 
8 0.918266 
9 0.968285 
10 0.979922 
11 0.976092 
12 0.957950 
13 0.930531 
14 0.845498 
15 0.722571 
16 0.617353 
17 0.513994 
18 0.347851 
19 0.157295 
20 -0.009976 
21 -0.154650 
22 -0.323573 
23 -0.478215 
24 -0.611195 
25 -0.734953 
26 -0.850613 
27 -0.928605 
28 -0.959672 
29 -0.966458 
30 -0.979126 
31 -0.981602 
32 -0.933776 
33 -0.846533 
34 -0.748974 
35 -0.634605 
36 -0.504916 
37 -0.387389 
38 -0.277887 
39 -0.135936 
Zone T= "13"
I=40 
0 0.024983 
1 0.162895 
2 0.288063 
3 0.432758 
4 0.556498 
5 0.647840 
6 0.734729 
7 0.828625 
8 0.915198 
9 0.966454 
10 0.978608 
11 0.974870 
12 0.958014 
13 0.932971 
14 0.848476 
15 0.724241 
16 0.619546 
17 0.518132 
18 0.351173 
19 0.157723 
20 -0.010552 
21 -0.154898 
22 -0.324639 
23 -0.480196 
24 -0.613127 
25 -0.737372 
26 -0.853932 
27 -0.930978 
28 -0.959485 
29 -0.964827 
30 -0.977981 
31 -0.980857 
32 -0.931897 
33 -0.842927 
34 -0.744232 
35 -0.629057 
36 -0.499047 
37 -0.382833 
38 -0.275526 
39 -0.134399 
Zone T= "14"
I=40 
0 0.026570 
1 0.163362 
2 0.286931 
3 0.431203 
4 0.554517 
5 0.644182 
6 0.729768 
7 0.824123 
8 0.912074 
9 0.964575 
10 0.977288 
11 0.973643 
12 0.958005 
13 0.935321 
14 0.851463 
15 0.725975 
16 0.621731 
17 0.522222 
18 0.354520 
19 0.158213 
20 -0.011116 
21 -0.155175 
22 -0.325722 
23 -0.482182 
24 -0.615083 
25 -0.739837 
26 -0.857247 
27 -0.933255 
28 -0.959208 
29 -0.963214 
30 -0.976876 
31 -0.980068 
32 -0.929948 
33 -0.839299 
34 -0.739481 
35 -0.623522 
36 -0.493248 
37 -0.378343 
38 -0.273172 
39 -0.132866 
Zone T= "0"
I=40 
0 0.023299 
1 0.162581 
2 0.286577 
3 0.429344 
4 0.552242 
5 0.639766 
6 0.727109 
7 0.819572 
8 0.909938 
9 0.961768 
10 0.980131 
11 0.972032 
12 0.958822 
13 0.936609 
14 0.855004 
15 0.728302 
16 0.623994 
17 0.526267 
18 0.360046 
19 0.155012 
20 -0.012172 
21 -0.155480 
22 -0.326635 
23 -0.484421 
24 -0.621388 
25 -0.742190 
26 -0.860703 
27 -0.935856 
28 -0.956873 
29 -0.963057 
30 -0.977847 
31 -0.978912 
32 -0.928434 
33 -0.837398 
34 -0.736666 
35 -0.623045 
36 -0.487938 
37 -0.375010 
38 -0.272306 
39 -0.132248 
Zone T= "1"
I=40 
0 0.021355 
1 0.161077 
2 0.286188 
3 0.428095 
4 0.549182 
5 0.636231 
6 0.723659 
7 0.815911 
8 0.906646 
9 0.960438 
10 0.980968 
11 0.972389 
12 0.958249 
13 0.938375 
14 0.858625 
15 0.730379 
16 0.626181 
17 0.531157 
18 0.363870 
19 0.153904 
20 -0.014720 
21 -0.155348 
22 -0.326892 
23 -0.488297 
24 -0.625950 
25 -0.745621 
26 -0.864146 
27 -0.937424 
28 -0.955636 
29 -0.962394 
30 -0.978554 
31 -0.978430 
32 -0.926342 
33 -0.835261 
34 -0.735101 
35 -0.620784 
36 -0.484055 
37 -0.371322 
38 -0.270816 
39 -0.132931 
Zone T= "2"
I=40 
0 0.019416 
1 0.159666 
2 0.285712 
3 0.426852 
4 0.546256 
5 0.632661 
6 0.720212 
7 0.812329 
8 0.903298 
9 0.959019 
10 0.981745 
11 0.972765 
12 0.957725 
13 0.940016 
14 0.862187 
15 0.732581 
16 0.628339 
17 0.535978 
18 0.367749 
19 0.152830 
20 -0.017191 
21 -0.155227 
22 -0.327313 
23 -0.492147 
24 -0.630472 
25 -0.749157 
26 -0.867480 
27 -0.938861 
28 -0.954470 
29 -0.961730 
30 -0.979247 
31 -0.977929 
32 -0.924152 
33 -0.833199 
34 -0.733584 
35 -0.618385 
36 -0.480243 
37 -0.367750 
38 -0.269268 
39 -0.133658 
Zone T= "3"
I=40 
0 0.017495 
1 0.158308 
2 0.285181 
3 0.425617 
4 0.543429 
5 0.629091 
6 0.716761 
7 0.808803 
8 0.899927 
9 0.957499 
10 0.982454 
11 0.973179 
12 0.957231 
13 0.941546 
14 0.865699 
15 0.734875 
16 0.630491 
17 0.540734 
18 0.371654 
19 0.151821 
20 -0.019596 
21 -0.155142 
22 -0.327852 
23 -0.495995 
24 -0.634976 
25 -0.752747 
26 -0.870733 
27 -0.940183 
28 -0.953332 
29 -0.961103 
30 -0.979923 
31 -0.977368 
32 -0.921914 
33 -0.831203 
34 -0.732077 
35 -0.615898 
36 -0.476486 
37 -0.364265 
38 -0.267706 
39 -0.134406 
Zone T= "4"
I=40 
0 0.015599 
1 0.156984 
2 0.284611 
3 0.424389 
4 0.540686 
5 0.625538 
6 0.713303 
7 0.805322 
8 0.896550 
9 0.955876 
10 0.983086 
11 0.973634 
12 0.956760 
13 0.942971 
14 0.869163 
15 0.737246 
16 0.632651 
17 0.545428 
18 0.375570 
19 0.150893 
20 -0.021941 
21 -0.155105 
22 -0.328489 
23 -0.499850 
24 -0.639473 
25 -0.756366 
26 -0.873917 
27 -0.941398 
28 -0.952205 
29 -0.960530 
30 -0.980578 
31 -0.976731 
32 -0.919654 
33 -0.829264 
34 -0.730561 
35 -0.613351 
36 -0.472775 
37 -0.360852 
38 -0.266152 
39 -0.135162 
Zone T= "5"
I=40 
0 0.013729 
1 0.155685 
2 0.284011 
3 0.423168 
4 0.538016 
5 0.622009 
6 0.709837 
7 0.801879 
8 0.893177 
9 0.954151 
10 0.983638 
11 0.974131 
12 0.956310 
13 0.944299 
14 0.872579 
15 0.739685 
16 0.634827 
17 0.550061 
18 0.379492 
19 0.150053 
20 -0.024230 
21 -0.155122 
22 -0.329214 
23 -0.503720 
24 -0.643968 
25 -0.760002 
26 -0.877036 
27 -0.942511 
28 -0.951084 
29 -0.960017 
30 -0.981206 
31 -0.976010 
32 -0.917386 
33 -0.827378 
34 -0.729026 
35 -0.610757 
36 -0.469107 
37 -0.357505 
38 -0.264613 
39 -0.135920 
Zone T= "6"
I=40 
0 0.011887 
1 0.154408 
2 0.283384 
3 0.421953 
4 0.535415 
5 0.618511 
6 0.706363 
7 0.798469 
8 0.889812 
9 0.952328 
10 0.984107 
11 0.974665 
12 0.955881 
13 0.945534 
14 0.875942 
15 0.742183 
16 0.637023 
17 0.554637 
18 0.383414 
19 0.149303 
20 -0.026464 
21 -0.155194 
22 -0.330019 
23 -0.507606 
24 -0.648464 
25 -0.763646 
26 -0.880090 
27 -0.943528 
28 -0.949969 
29 -0.959565 
30 -0.981804 
31 -0.975207 
32 -0.915119 
33 -0.825539 
34 -0.727468 
35 -0.608124 
36 -0.465481 
37 -0.354218 
38 -0.263095 
39 -0.136677 
Zone T= "7"
I=40 
0 0.010072 
1 0.153150 
2 0.282735 
3 0.420742 
4 0.532878 
5 0.615046 
6 0.702882 
7 0.795090 
8 0.886459 
9 0.950412 
10 0.984490 
11 0.975233 
12 0.955476 
13 0.946682 
14 0.879252 
15 0.744737 
16 0.639241 
17 0.559156 
18 0.387336 
19 0.148643 
20 -0.028645 
21 -0.155323 
22 -0.330902 
23 -0.511510 
24 -0.652964 
25 -0.767295 
26 -0.883079 
27 -0.944451 
28 -0.948862 
29 -0.959171 
30 -0.982368 
31 -0.974322 
32 -0.912858 
33 -0.823745 
34 -0.725885 
35 -0.605457 
36 -0.461896 
37 -0.350989 
38 -0.261599 
39 -0.137432 
Zone T= "8"
I=40 
0 0.008282 
1 0.151911 
2 0.282066 
3 0.419535 
4 0.530403 
5 0.611617 
6 0.699395 
7 0.791739 
8 0.883121 
9 0.948406 
10 0.984784 
11 0.975830 
12 0.955095 
13 0.947747 
14 0.882504 
15 0.747341 
16 0.641484 
17 0.563622 
18 0.391254 
19 0.148073 
20 -0.030774 
21 -0.155508 
22 -0.331862 
23 -0.515433 
24 -0.657467 
25 -0.770944 
26 -0.885998 
27 -0.945285 
28 -0.947765 
29 -0.958833 
30 -0.982894 
31 -0.973359 
32 -0.910606 
33 -0.821992 
34 -0.724275 
35 -0.602760 
36 -0.458353 
37 -0.347817 
38 -0.260125 
39 -0.138185 
Zone T= "9"
I=40 
0 0.006518 
1 0.150690 
2 0.281377 
3 0.418331 
4 0.527988 
5 0.608224 
6 0.695902 
7 0.788414 
8 0.879799 
9 0.946317 
10 0.984990 
11 0.976449 
12 0.954741 
13 0.948735 
14 0.885697 
15 0.749991 
16 0.643754 
17 0.568037 
18 0.395169 
19 0.147592 
20 -0.032850 
21 -0.155751 
22 -0.332896 
23 -0.519375 
24 -0.661976 
25 -0.774589 
26 -0.888846 
27 -0.946034 
28 -0.946683 
29 -0.958546 
30 -0.983378 
31 -0.972321 
32 -0.908366 
33 -0.820278 
34 -0.722638 
35 -0.600036 
36 -0.454851 
37 -0.344699 
38 -0.258672 
39 -0.138936 
Zone T= "10"
I=40 
0 0.004779 
1 0.149486 
2 0.280670 
3 0.417130 
4 0.525629 
5 0.604868 
6 0.692405 
7 0.785114 
8 0.876495 
9 0.944149 
10 0.985105 
11 0.977085 
12 0.954414 
13 0.949649 
14 0.888829 
15 0.752683 
16 0.646053 
17 0.572403 
18 0.399079 
19 0.147198 
20 -0.034875 
21 -0.156051 
22 -0.334002 
23 -0.523337 
24 -0.666492 
25 -0.778228 
26 -0.891621 
27 -0.946703 
28 -0.945617 
29 -0.958307 
30 -0.983819 
31 -0.971213 
32 -0.906140 
33 -0.818599 
34 -0.720973 
35 -0.597288 
36 -0.451390 
37 -0.341633 
38 -0.257240 
39 -0.139684 
Zone T= "11"
I=40 
0 0.003064 
1 0.148301 
2 0.279946 
3 0.415929 
4 0.523326 
5 0.601551 
6 0.688905 
7 0.781836 
8 0.873210 
9 0.941907 
10 0.985129 
11 0.977734 
12 0.954115 
13 0.950494 
14 0.891896 
15 0.755412 
16 0.648381 
17 0.576723 
18 0.402984 
19 0.146892 
20 -0.036850 
21 -0.156408 
22 -0.335181 
23 -0.527319 
24 -0.671015 
25 -0.781857 
26 -0.894321 
27 -0.947295 
28 -0.944570 
29 -0.958111 
30 -0.984213 
31 -0.970038 
32 -0.903930 
33 -0.816952 
34 -0.719280 
35 -0.594518 
36 -0.447971 
37 -0.338620 
38 -0.255828 
39 -0.140429 
Zone T= "12"
I=40 
0 0.001372 
1 0.147133 
2 0.279208 
3 0.414729 
4 0.521075 
5 0.598273 
6 0.685403 
7 0.778578 
8 0.869944 
9 0.939595 
10 0.985061 
11 0.978390 
12 0.953845 
13 0.951276 
14 0.894899 
15 0.758174 
16 0.650741 
17 0.580999 
18 0.406882 
19 0.146671 
20 -0.038775 
21 -0.156822 
22 -0.336431 
23 -0.531321 
24 -0.675545 
25 -0.785472 
26 -0.896943 
27 -0.947816 
28 -0.943546 
29 -0.957954 
30 -0.984559 
31 -0.968800 
32 -0.901738 
33 -0.815336 
34 -0.717558 
35 -0.591729 
36 -0.444594 
37 -0.335656 
38 -0.254436 
39 -0.141172 
Zone T= "13"
I=40 
0 -0.000298 
1 0.145983 
2 0.278455 
3 0.413529 
4 0.518875 
5 0.595035 
6 0.681900 
7 0.775341 
8 0.866700 
9 0.937219 
10 0.984902 
11 0.979048 
12 0.953605 
13 0.951997 
14 0.897835 
15 0.760965 
16 0.653132 
17 0.585233 
18 0.410773 
19 0.146534 
20 -0.040650 
21 -0.157293 
22 -0.337751 
23 -0.535344 
24 -0.680083 
25 -0.789072 
26 -0.899487 
27 -0.948268 
28 -0.942546 
29 -0.957831 
30 -0.984856 
31 -0.967504 
32 -0.899564 
33 -0.813746 
34 -0.715809 
35 -0.588923 
36 -0.441258 
37 -0.332741 
38 -0.253064 
39 -0.141912 
Zone T= "14"
I=40 
0 -0.001946 
1 0.144850 
2 0.277688 
3 0.412329 
4 0.516724 
5 0.591837 
6 0.678398 
7 0.772121 
8 0.863476 
9 0.934783 
10 0.984652 
11 0.979704 
12 0.953394 
13 0.952663 
14 0.900703 
15 0.763781 
16 0.655554 
17 0.589427 
18 0.414657 
19 0.146480 
20 -0.042476 
21 -0.157820 
22 -0.339140 
23 -0.539389 
24 -0.684628 
25 -0.792652 
26 -0.901950 
27 -0.948657 
28 -0.941572 
29 -0.957739 
30 -0.985100 
31 -0.966153 
32 -0.897410 
33 -0.812182 
34 -0.714032 
35 -0.586103 
36 -0.437963 
37 -0.329874 
38 -0.251710 
39 -0.142650 
Zone T= "0"
I=40 
0 -0.001441 
1 0.141657 
2 0.274148 
3 0.412202 
4 0.515279 
5 0.589394 
6 0.675709 
7 0.769003 
8 0.858295 
9 0.934782 
10 0.985692 
11 0.980934 
12 0.957816 
13 0.955494 
14 0.903414 
15 0.766573 
16 0.659567 
17 0.593584 
18 0.417520 
19 0.146507 
20 -0.044254 
21 -0.162132 
22 -0.340450 
23 -0.543602 
24 -0.689362 
25 -0.797374 
26 -0.904396 
27 -0.948665 
28 -0.942559 
29 -0.956851 
30 -0.987215 
31 -0.965661 
32 -0.896786 
33 -0.808972 
34 -0.712251 
35 -0.581150 
36 -0.434815 
37 -0.327433 
38 -0.252489 
39 -0.143025 
Zone T= "1"
I=40 
0 -0.001459 
1 0.138672 
2 0.270927 
3 0.411579 
4 0.514143 
5 0.586843 
6 0.673342 
7 0.765227 
8 0.854139 
9 0.933814 
10 0.986820 
11 0.982715 
12 0.961241 
13 0.959117 
14 0.905820 
15 0.769391 
16 0.663624 
17 0.597720 
18 0.420359 
19 0.146824 
20 -0.046638 
21 -0.165421 
22 -0.343018 
23 -0.546865 
24 -0.694656 
25 -0.802044 
26 -0.906345 
27 -0.949309 
28 -0.942737 
29 -0.956971 
30 -0.988239 
31 -0.966149 
32 -0.895200 
33 -0.806574 
34 -0.709578 
35 -0.577242 
36 -0.430695 
37 -0.325758 
38 -0.253121 
39 -0.143002 
Zone T= "2"
I=40 
0 -0.001654 
1 0.135732 
2 0.267908 
3 0.410746 
4 0.513011 
5 0.584501 
6 0.670827 
7 0.761516 
8 0.850146 
9 0.932564 
10 0.987872 
11 0.984608 
12 0.964468 
13 0.962750 
14 0.908402 
15 0.772101 
16 0.667648 
17 0.601952 
18 0.423176 
19 0.147160 
20 -0.048973 
21 -0.168723 
22 -0.345638 
23 -0.550211 
24 -0.699946 
25 -0.806657 
26 -0.908250 
27 -0.949874 
28 -0.942957 
29 -0.957157 
30 -0.989165 
31 -0.966622 
32 -0.893607 
33 -0.804063 
34 -0.706979 
35 -0.573373 
36 -0.426517 
37 -0.324249 
38 -0.253740 
39 -0.142827 
Zone T= "3"
I=40 
0 -0.001942 
1 0.132840 
2 0.265001 
3 0.409797 
4 0.511877 
5 0.582279 
6 0.668260 
7 0.757857 
8 0.846237 
9 0.931132 
10 0.988828 
11 0.986540 
12 0.967585 
13 0.966369 
14 0.911102 
15 0.774778 
16 0.671623 
17 0.606235 
18 0.426022 
19 0.147506 
20 -0.051284 
21 -0.172014 
22 -0.348312 
23 -0.553648 
24 -0.705230 
25 -0.811201 
26 -0.910109 
27 -0.950389 
28 -0.943197 
29 -0.957395 
30 -0.990039 
31 -0.967044 
32 -0.891990 
33 -0.801505 
34 -0.704401 
35 -0.569528 
36 -0.422360 
37 -0.322836 
38 -0.254334 
39 -0.142592 
Zone T= "4"
I=40 
0 -0.002286 
1 0.129998 
2 0.262163 
3 0.408776 
4 0.510740 
5 0.580134 
6 0.665684 
7 0.754245 
8 0.842378 
9 0.929564 
10 0.989680 
11 0.988471 
12 0.970633 
13 0.969967 
14 0.913886 
15 0.777455 
16 0.675546 
17 0.610544 
18 0.428919 
19 0.147862 
20 -0.053585 
21 -0.175286 
22 -0.351039 
23 -0.557180 
24 -0.710509 
25 -0.815669 
26 -0.911921 
27 -0.950870 
28 -0.943447 
29 -0.957677 
30 -0.990882 
31 -0.967397 
32 -0.890342 
33 -0.798932 
34 -0.701818 
35 -0.565701 
36 -0.418261 
37 -0.321483 
38 -0.254897 
39 -0.142336 
Zone T= "5"
I=40 
0 -0.002666 
1 0.127207 
2 0.259374 
3 0.407704 
4 0.509601 
5 0.578044 
6 0.663120 
7 0.750677 
8 0.838550 
9 0.927887 
10 0.990425 
11 0.990383 
12 0.973630 
13 0.973541 
14 0.916736 
15 0.780150 
16 0.679418 
17 0.614868 
18 0.431875 
19 0.148229 
20 -0.055883 
21 -0.178537 
22 -0.353818 
23 -0.560809 
24 -0.715781 
25 -0.820059 
26 -0.913684 
27 -0.951323 
28 -0.943702 
29 -0.957998 
30 -0.991702 
31 -0.967672 
32 -0.888663 
33 -0.796357 
34 -0.699220 
35 -0.561890 
36 -0.414234 
37 -0.320174 
38 -0.255428 
39 -0.142080 
Zone T= "6"
I=40 
0 -0.003074 
1 0.124466 
2 0.256623 
3 0.406590 
4 0.508459 
5 0.575998 
6 0.660575 
7 0.747154 
8 0.834748 
9 0.926114 
10 0.991063 
11 0.992264 
12 0.976584 
13 0.977090 
14 0.919645 
15 0.782870 
16 0.683242 
17 0.619197 
18 0.434893 
19 0.148610 
20 -0.058180 
21 -0.181768 
22 -0.356649 
23 -0.564532 
24 -0.721045 
25 -0.824367 
26 -0.915401 
27 -0.951753 
28 -0.943962 
29 -0.958355 
30 -0.992500 
31 -0.967869 
32 -0.886953 
33 -0.793787 
34 -0.696603 
35 -0.558095 
36 -0.410288 
37 -0.318900 
38 -0.255925 
39 -0.141834 
Zone T= "7"
I=40 
0 -0.003506 
1 0.121776 
2 0.253906 
3 0.405442 
4 0.507315 
5 0.573990 
6 0.658053 
7 0.743674 
8 0.830968 
9 0.924252 
10 0.991596 
11 0.994106 
12 0.979499 
13 0.980613 
14 0.922604 
15 0.785620 
16 0.687021 
17 0.623530 
18 0.437973 
19 0.149008 
20 -0.060476 
21 -0.184980 
22 -0.359533 
23 -0.568348 
24 -0.726300 
25 -0.828593 
26 -0.917070 
27 -0.952164 
28 -0.944227 
29 -0.958745 
30 -0.993276 
31 -0.967985 
32 -0.885213 
33 -0.791225 
34 -0.693964 
35 -0.554316 
36 -0.406424 
37 -0.317656 
38 -0.256389 
39 -0.141600 
Zone T= "8"
I=40 
0 -0.003960 
1 0.119136 
2 0.251221 
3 0.404261 
4 0.506168 
5 0.572018 
6 0.655555 
7 0.740239 
8 0.827211 
9 0.922309 
10 0.992022 
11 0.995905 
12 0.982376 
13 0.984111 
14 0.925610 
15 0.788399 
16 0.690759 
17 0.627862 
18 0.441113 
19 0.149426 
20 -0.062773 
21 -0.188177 
22 -0.362469 
23 -0.572255 
24 -0.731544 
25 -0.832736 
26 -0.918692 
27 -0.952557 
28 -0.944496 
29 -0.959165 
30 -0.994029 
31 -0.968023 
32 -0.883444 
33 -0.788671 
34 -0.691304 
35 -0.550555 
36 -0.402643 
37 -0.316440 
38 -0.256821 
39 -0.141383 
Zone T= "9"
I=40 
0 -0.004434 
1 0.116545 
2 0.248566 
3 0.403050 
4 0.505020 
5 0.570078 
6 0.653082 
7 0.736846 
8 0.823478 
9 0.920290 
10 0.992344 
11 0.997657 
12 0.985214 
13 0.987584 
14 0.928659 
15 0.791211 
16 0.694459 
17 0.632194 
18 0.444311 
19 0.149865 
20 -0.065068 
21 -0.191362 
22 -0.365459 
23 -0.576249 
24 -0.736776 
25 -0.836796 
26 -0.920267 
27 -0.952936 
28 -0.944773 
29 -0.959613 
30 -0.994756 
31 -0.967984 
32 -0.881648 
33 -0.786125 
34 -0.688625 
35 -0.546813 
36 -0.398942 
37 -0.315250 
38 -0.257220 
39 -0.141181 
Zone T= "10"
I=40 
0 -0.004928 
1 0.114001 
2 0.245941 
3 0.401810 
4 0.503870 
5 0.568170 
6 0.650633 
7 0.733496 
8 0.819768 
9 0.918198 
10 0.992563 
11 0.999358 
12 0.988013 
13 0.991030 
14 0.931750 
15 0.794053 
16 0.698124 
17 0.636523 
18 0.447565 
19 0.150328 
20 -0.067361 
21 -0.194537 
22 -0.368504 
23 -0.580329 
24 -0.741993 
25 -0.840773 
26 -0.921795 
27 -0.953301 
28 -0.945057 
29 -0.960085 
30 -0.995456 
31 -0.967869 
32 -0.879826 
33 -0.783588 
34 -0.685926 
35 -0.543092 
36 -0.395321 
37 -0.314084 
38 -0.257589 
39 -0.140996 
Zone T= "11"
I=40 
0 -0.005440 
1 0.111504 
2 0.243345 
3 0.400543 
4 0.502717 
5 0.566291 
6 0.648207 
7 0.730189 
8 0.816085 
9 0.916037 
10 0.992679 
11 1.001006 
12 0.990772 
13 0.994450 
14 0.934878 
15 0.796928 
16 0.701756 
17 0.640849 
18 0.450873 
19 0.150815 
20 -0.069651 
21 -0.197705 
22 -0.371603 
23 -0.584490 
24 -0.747195 
25 -0.844667 
26 -0.923276 
27 -0.953655 
28 -0.945350 
29 -0.960579 
30 -0.996127 
31 -0.967682 
32 -0.877979 
33 -0.781059 
34 -0.683209 
35 -0.539391 
36 -0.391777 
37 -0.312940 
38 -0.257927 
39 -0.140827 
Zone T= "12"
I=40 
0 -0.005971 
1 0.109053 
2 0.240778 
3 0.399250 
4 0.501563 
5 0.564441 
6 0.645804 
7 0.726922 
8 0.812428 
9 0.913813 
10 0.992694 
11 1.002599 
12 0.993489 
13 0.997844 
14 0.938043 
15 0.799834 
16 0.705358 
17 0.645171 
18 0.454233 
19 0.151329 
20 -0.071936 
21 -0.200869 
22 -0.374759 
23 -0.588729 
24 -0.752380 
25 -0.848478 
26 -0.924712 
27 -0.953999 
28 -0.945653 
29 -0.961092 
30 -0.996767 
31 -0.967423 
32 -0.876109 
33 -0.778537 
34 -0.680476 
35 -0.535713 
36 -0.388311 
37 -0.311818 
38 -0.258235 
39 -0.140675 
Zone T= "13"
I=40 
0 -0.006520 
1 0.106646 
2 0.238240 
3 0.397933 
4 0.500406 
5 0.562620 
6 0.643423 
7 0.723696 
8 0.808799 
9 0.911528 
10 0.992609 
11 1.004134 
12 0.996163 
13 1.001211 
14 0.941242 
15 0.802772 
16 0.708932 
17 0.649489 
18 0.457643 
19 0.151872 
20 -0.074216 
21 -0.204033 
22 -0.377971 
23 -0.593045 
24 -0.757545 
25 -0.852206 
26 -0.926101 
27 -0.954336 
28 -0.945966 
29 -0.961622 
30 -0.997374 
31 -0.967095 
32 -0.874217 
33 -0.776022 
34 -0.677727 
35 -0.532059 
36 -0.384918 
37 -0.310716 
38 -0.258516 
39 -0.140540 
Zone T= "14"
I=40 
0 -0.007086 
1 0.104283 
2 0.235731 
3 0.396592 
4 0.499246 
5 0.560825 
6 0.641065 
7 0.720511 
8 0.805199 
9 0.909187 
10 0.992427 
11 1.005609 
12 0.998794 
13 1.004551 
14 0.944472 
15 0.805741 
16 0.712481 
17 0.653802 
18 0.461100 
19 0.152443 
20 -0.076489 
21 -0.207197 
22 -0.381241 
23 -0.597434 
24 -0.762689 
25 -0.855852 
26 -0.927445 
27 -0.954667 
28 -0.946291 
29 -0.962165 
30 -0.997947 
31 -0.966699 
32 -0.872304 
33 -0.773513 
34 -0.674965 
35 -0.528429 
36 -0.381598 
37 -0.309634 
38 -0.258769 
39 -0.140420 
Zone T= "0"
I=40 
0 -0.005073 
1 0.103815 
2 0.236107 
3 0.395229 
4 0.497856 
5 0.558805 
6 0.636074 
7 0.718422 
8 0.801721 
9 0.906107 
10 0.988467 
11 1.006264 
12 1.001502 
13 1.007154 
14 0.947689 
15 0.809131 
16 0.715563 
17 0.657843 
18 0.467275 
19 0.156437 
20 -0.078756 
21 -0.213304 
22 -0.384613 
23 -0.602084 
24 -0.765691 
25 -0.859932 
26 -0.928608 
27 -0.957204 
28 -0.947390 
29 -0.962516 
30 -0.993416 
31 -0.964579 
32 -0.870371 
33 -0.772683 
34 -0.671049 
35 -0.525173 
36 -0.377965 
37 -0.306655 
38 -0.253292 
39 -0.140719 
Zone T= "1"
I=40 
0 -0.004666 
1 0.104537 
2 0.235821 
3 0.394066 
4 0.496705 
5 0.556240 
6 0.632017 
7 0.715268 
8 0.799245 
9 0.902291 
10 0.985027 
11 1.006424 
12 1.004234 
13 1.009842 
14 0.950718 
15 0.812735 
16 0.718546 
17 0.661850 
18 0.473571 
19 0.160359 
20 -0.081181 
21 -0.218794 
22 -0.388949 
23 -0.605706 
24 -0.769705 
25 -0.863131 
26 -0.930456 
27 -0.959090 
28 -0.949187 
29 -0.961783 
30 -0.989912 
31 -0.961545 
32 -0.869323 
33 -0.771150 
34 -0.667546 
35 -0.521601 
36 -0.374932 
37 -0.302610 
38 -0.249417 
39 -0.139266 
Zone T= "2"
I=40 
0 -0.004246 
1 0.105204 
2 0.235588 
3 0.392924 
4 0.495510 
5 0.553768 
6 0.628017 
7 0.712041 
8 0.796808 
9 0.898555 
10 0.981514 
11 1.006444 
12 1.006873 
13 1.012520 
14 0.953776 
15 0.816330 
16 0.721540 
17 0.665881 
18 0.479832 
19 0.164283 
20 -0.083548 
21 -0.224276 
22 -0.393317 
23 -0.609363 
24 -0.773729 
25 -0.866284 
26 -0.932290 
27 -0.960999 
28 -0.950900 
29 -0.960902 
30 -0.986395 
31 -0.958623 
32 -0.868292 
33 -0.769522 
34 -0.664061 
35 -0.518099 
36 -0.371855 
37 -0.298582 
38 -0.245634 
39 -0.137780 
Zone T= "3"
I=40 
0 -0.003815 
1 0.105839 
2 0.235390 
3 0.391800 
4 0.494292 
5 0.551365 
6 0.624072 
7 0.708764 
8 0.794385 
9 0.894898 
10 0.977955 
11 1.006311 
12 1.009415 
13 1.015199 
14 0.956847 
15 0.819920 
16 0.724556 
17 0.669922 
18 0.486062 
19 0.168215 
20 -0.085867 
21 -0.229750 
22 -0.397713 
23 -0.613057 
24 -0.777760 
25 -0.869391 
26 -0.934111 
27 -0.962930 
28 -0.952526 
29 -0.959873 
30 -0.982881 
31 -0.955813 
32 -0.867259 
33 -0.767815 
34 -0.660598 
35 -0.514647 
36 -0.368751 
37 -0.294577 
38 -0.241920 
39 -0.136277 
Zone T= "4"
I=40 
0 -0.003377 
1 0.106451 
2 0.235218 
3 0.390694 
4 0.493063 
5 0.549019 
6 0.620184 
7 0.705450 
8 0.791964 
9 0.891317 
10 0.974364 
11 1.006020 
12 1.011856 
13 1.017884 
14 0.959925 
15 0.823505 
16 0.727596 
17 0.673967 
18 0.492264 
19 0.172161 
20 -0.088142 
21 -0.235215 
22 -0.402135 
23 -0.616791 
24 -0.781799 
25 -0.872451 
26 -0.935921 
27 -0.964882 
28 -0.954059 
29 -0.958699 
30 -0.979379 
31 -0.953111 
32 -0.866216 
33 -0.766036 
34 -0.657163 
35 -0.511237 
36 -0.365624 
37 -0.290598 
38 -0.238265 
39 -0.134765 
Zone T= "5"
I=40 
0 -0.002932 
1 0.107044 
2 0.235067 
3 0.389605 
4 0.491826 
5 0.546724 
6 0.616352 
7 0.702107 
8 0.789540 
9 0.887810 
10 0.970751 
11 1.005573 
12 1.014193 
13 1.020570 
14 0.963007 
15 0.827087 
16 0.730662 
17 0.678014 
18 0.498439 
19 0.176121 
20 -0.090377 
21 -0.240672 
22 -0.406583 
23 -0.620564 
24 -0.785840 
25 -0.875466 
26 -0.937723 
27 -0.966849 
28 -0.955495 
29 -0.957383 
30 -0.975896 
31 -0.950512 
32 -0.865155 
33 -0.764193 
34 -0.653756 
35 -0.507861 
36 -0.362480 
37 -0.286647 
38 -0.234663 
39 -0.133245 
Zone T= "6"
I=40 
0 -0.002482 
1 0.107622 
2 0.234935 
3 0.388534 
4 0.490584 
5 0.544476 
6 0.612576 
7 0.698739 
8 0.787109 
9 0.884373 
10 0.967123 
11 1.004974 
12 1.016421 
13 1.023256 
14 0.966094 
15 0.830666 
16 0.733753 
17 0.682063 
18 0.504589 
19 0.180097 
20 -0.092574 
21 -0.246120 
22 -0.411057 
23 -0.624375 
24 -0.789882 
25 -0.878436 
26 -0.939517 
27 -0.968828 
28 -0.956831 
29 -0.955934 
30 -0.972439 
31 -0.948012 
32 -0.864073 
33 -0.762288 
34 -0.650380 
35 -0.504517 
36 -0.359321 
37 -0.282725 
38 -0.231112 
39 -0.131720 
Zone T= "7"
I=40 
0 -0.002027 
1 0.108184 
2 0.234821 
3 0.387481 
4 0.489338 
5 0.542273 
6 0.608856 
7 0.695351 
8 0.784669 
9 0.881003 
10 0.963487 
11 1.004230 
12 1.018536 
13 1.025935 
14 0.969185 
15 0.834245 
16 0.736867 
17 0.686112 
18 0.510717 
19 0.184086 
20 -0.094733 
21 -0.251558 
22 -0.415558 
23 -0.628224 
24 -0.793921 
25 -0.881362 
26 -0.941308 
27 -0.970812 
28 -0.958064 
29 -0.954357 
30 -0.969012 
31 -0.945606 
32 -0.862966 
33 -0.760327 
34 -0.647035 
35 -0.501203 
36 -0.356146 
37 -0.278833 
38 -0.227608 
39 -0.130190 
Zone T= "8"
I=40 
0 -0.001567 
1 0.108733 
2 0.234725 
3 0.386444 
4 0.488088 
5 0.540111 
6 0.605192 
7 0.691945 
8 0.782217 
9 0.877697 
10 0.959846 
11 1.003346 
12 1.020536 
13 1.028602 
14 0.972281 
15 0.837823 
16 0.740001 
17 0.690163 
18 0.516825 
19 0.188089 
20 -0.096855 
21 -0.256988 
22 -0.420087 
23 -0.632110 
24 -0.797954 
25 -0.884247 
26 -0.943096 
27 -0.972798 
28 -0.959191 
29 -0.952661 
30 -0.965621 
31 -0.943289 
32 -0.861831 
33 -0.758312 
34 -0.643723 
35 -0.497916 
36 -0.352959 
37 -0.274971 
38 -0.224150 
39 -0.128655 
Zone T= "9"
I=40 
0 -0.001102 
1 0.109267 
2 0.234646 
3 0.385425 
4 0.486835 
5 0.537991 
6 0.601583 
7 0.688525 
8 0.779754 
9 0.874451 
10 0.956206 
11 1.002328 
12 1.022417 
13 1.031252 
14 0.975382 
15 0.841402 
16 0.743154 
17 0.694214 
18 0.522915 
19 0.192105 
20 -0.098941 
21 -0.262408 
22 -0.424645 
23 -0.636031 
24 -0.801979 